
     Program PWSCF v.7.5 starts on 25Feb2026 at 20:32:11 

     This program is part of the open-source Quantum ESPRESSO suite
     for quantum simulation of materials; please cite
         "P. Giannozzi et al., J. Phys.:Condens. Matter 21 395502 (2009);
         "P. Giannozzi et al., J. Phys.:Condens. Matter 29 465901 (2017);
         "P. Giannozzi et al., J. Chem. Phys. 152 154105 (2020);
          URL http://www.quantum-espresso.org", 
     in publications or presentations arising from this work. More details at
     http://www.quantum-espresso.org/quote

     Parallel version (MPI), running on     5 processors

     MPI processes distributed on     1 nodes
     0 MiB available memory on the printing compute node when the environment starts

     Reading input from NiO.nscf.in

     Current dimensions of program PWSCF are:
     Max number of different atomic species (ntypx) = 10
     Max number of k-points (npk) =  40000
     Max angular momentum in pseudopotentials (lmaxx) =  4
     file Ni.pbesol-n-rrkjus_psl.0.1.UPF: wavefunction(s)  3D renormalized

     Atomic positions and unit cell read from directory:
     /Users/kirill/Documents/dft/volume/NiO_dos/out/NiO.save/


     R & G space division:  proc/nbgrp/npool/nimage =       5
     Subspace diagonalization in iterative solution of the eigenvalue problem:
     a serial algorithm will be used


     Parallelization info
     --------------------
     sticks:   dense  smooth     PW     G-vecs:    dense   smooth      PW
     Min         231      92     30                 5243     1322     248
     Max         232      93     31                 5247     1324     251
     Sum        1159     463    151                26229     6615    1243

     Using Slab Decomposition



     bravais-lattice index     =            2
     lattice parameter (alat)  =       7.8370  a.u.
     unit-cell volume          =     120.3343 (a.u.)^3
     number of atoms/cell      =            2
     number of atomic types    =            2
     number of electrons       =        16.00
     number of Kohn-Sham states=           36
     kinetic-energy cutoff     =      55.0000  Ry
     charge density cutoff     =     550.0000  Ry
     Exchange-correlation= PBESOL
                           (   1   4  10   8   0   0   0)

     celldm(1)=   7.837000  celldm(2)=   0.000000  celldm(3)=   0.000000
     celldm(4)=   0.000000  celldm(5)=   0.000000  celldm(6)=   0.000000

     crystal axes: (cart. coord. in units of alat)
               a(1) = (  -0.500000   0.000000   0.500000 )  
               a(2) = (   0.000000   0.500000   0.500000 )  
               a(3) = (  -0.500000   0.500000   0.000000 )  

     reciprocal axes: (cart. coord. in units 2 pi/alat)
               b(1) = ( -1.000000 -1.000000  1.000000 )  
               b(2) = (  1.000000  1.000000  1.000000 )  
               b(3) = ( -1.000000  1.000000 -1.000000 )  


     PseudoPot. # 1 for Ni read from file:
     /Users/kirill/Documents/dft/volume/NiO_dos/../../pot/Ni.pbesol-n-rrkjus_psl.0.1.UPF
     MD5 check sum: 8a65ecc087b22b902f7e15bb4f925df7
     Pseudo is Ultrasoft + core correction, Zval = 10.0
     Generated using "atomic" code by A. Dal Corso  v.5.0.2 svn rev. 9415
     Using radial grid of 1195 points,  6 beta functions with: 
                l(1) =   0
                l(2) =   0
                l(3) =   1
                l(4) =   1
                l(5) =   2
                l(6) =   2
     Q(r) pseudized with 0 coefficients 


     PseudoPot. # 2 for O  read from file:
     /Users/kirill/Documents/dft/volume/NiO_dos/../../pot/O.pbesol-n-rrkjus_psl.1.0.0.UPF
     MD5 check sum: 69b2cf9905362d8720b1d83b4ba3171b
     Pseudo is Ultrasoft + core correction, Zval =  6.0
     Generated using &quot;atomic&quot; code by A. Dal Corso  v.6.3MaX
     Using radial grid of 1095 points,  4 beta functions with: 
                l(1) =   0
                l(2) =   0
                l(3) =   1
                l(4) =   1
     Q(r) pseudized with 0 coefficients 


     atomic species   valence    mass     pseudopotential
     Ni               10.00    58.69340     Ni( 1.00)
     O                 6.00    15.99900     O ( 1.00)

     48 Sym. Ops., with inversion, found



   Cartesian axes

     site n.     atom                  positions (alat units)
         1        Ni     tau(   1) = (   0.0000000   0.0000000   0.0000000  )
         2        O      tau(   2) = (   0.5000000   0.5000000   0.5000000  )

     number of k points=    72 (tetrahedron method)
                       cart. coord. in units 2pi/alat
        k(    1) = (   0.0000000   0.0000000   0.0000000), wk =   0.0011574
        k(    2) = (  -0.0833333   0.0833333  -0.0833333), wk =   0.0092593
        k(    3) = (  -0.1666667   0.1666667  -0.1666667), wk =   0.0092593
        k(    4) = (  -0.2500000   0.2500000  -0.2500000), wk =   0.0092593
        k(    5) = (  -0.3333333   0.3333333  -0.3333333), wk =   0.0092593
        k(    6) = (  -0.4166667   0.4166667  -0.4166667), wk =   0.0092593
        k(    7) = (   0.5000000  -0.5000000   0.5000000), wk =   0.0046296
        k(    8) = (   0.0000000   0.1666667   0.0000000), wk =   0.0069444
        k(    9) = (  -0.0833333   0.2500000  -0.0833333), wk =   0.0277778
        k(   10) = (  -0.1666667   0.3333333  -0.1666667), wk =   0.0277778
        k(   11) = (  -0.2500000   0.4166667  -0.2500000), wk =   0.0277778
        k(   12) = (  -0.3333333   0.5000000  -0.3333333), wk =   0.0277778
        k(   13) = (   0.5833333  -0.4166667   0.5833333), wk =   0.0277778
        k(   14) = (   0.5000000  -0.3333333   0.5000000), wk =   0.0277778
        k(   15) = (   0.4166667  -0.2500000   0.4166667), wk =   0.0277778
        k(   16) = (   0.3333333  -0.1666667   0.3333333), wk =   0.0277778
        k(   17) = (   0.2500000  -0.0833333   0.2500000), wk =   0.0277778
        k(   18) = (   0.1666667  -0.0000000   0.1666667), wk =   0.0138889
        k(   19) = (   0.0000000   0.3333333   0.0000000), wk =   0.0069444
        k(   20) = (  -0.0833333   0.4166667  -0.0833333), wk =   0.0277778
        k(   21) = (  -0.1666667   0.5000000  -0.1666667), wk =   0.0277778
        k(   22) = (  -0.2500000   0.5833333  -0.2500000), wk =   0.0277778
        k(   23) = (   0.6666667  -0.3333333   0.6666667), wk =   0.0277778
        k(   24) = (   0.5833333  -0.2500000   0.5833333), wk =   0.0277778
        k(   25) = (   0.5000000  -0.1666667   0.5000000), wk =   0.0277778
        k(   26) = (   0.4166667  -0.0833333   0.4166667), wk =   0.0277778
        k(   27) = (   0.3333333   0.0000000   0.3333333), wk =   0.0138889
        k(   28) = (   0.0000000   0.5000000   0.0000000), wk =   0.0069444
        k(   29) = (  -0.0833333   0.5833333  -0.0833333), wk =   0.0277778
        k(   30) = (  -0.1666667   0.6666667  -0.1666667), wk =   0.0277778
        k(   31) = (   0.7500000  -0.2500000   0.7500000), wk =   0.0277778
        k(   32) = (   0.6666667  -0.1666667   0.6666667), wk =   0.0277778
        k(   33) = (   0.5833333  -0.0833333   0.5833333), wk =   0.0277778
        k(   34) = (   0.5000000   0.0000000   0.5000000), wk =   0.0138889
        k(   35) = (   0.0000000   0.6666667   0.0000000), wk =   0.0069444
        k(   36) = (  -0.0833333   0.7500000  -0.0833333), wk =   0.0277778
        k(   37) = (   0.8333333  -0.1666667   0.8333333), wk =   0.0277778
        k(   38) = (   0.7500000  -0.0833333   0.7500000), wk =   0.0277778
        k(   39) = (   0.6666667   0.0000000   0.6666667), wk =   0.0138889
        k(   40) = (   0.0000000   0.8333333   0.0000000), wk =   0.0069444
        k(   41) = (   0.9166667  -0.0833333   0.9166667), wk =   0.0277778
        k(   42) = (   0.8333333   0.0000000   0.8333333), wk =   0.0138889
        k(   43) = (   0.0000000  -1.0000000   0.0000000), wk =   0.0034722
        k(   44) = (  -0.1666667   0.3333333   0.0000000), wk =   0.0277778
        k(   45) = (  -0.2500000   0.4166667  -0.0833333), wk =   0.0555556
        k(   46) = (  -0.3333333   0.5000000  -0.1666667), wk =   0.0555556
        k(   47) = (   0.5833333  -0.4166667   0.7500000), wk =   0.0555556
        k(   48) = (   0.5000000  -0.3333333   0.6666667), wk =   0.0277778
        k(   49) = (  -0.1666667   0.5000000   0.0000000), wk =   0.0277778
        k(   50) = (  -0.2500000   0.5833333  -0.0833333), wk =   0.0555556
        k(   51) = (   0.6666667  -0.3333333   0.8333333), wk =   0.0555556
        k(   52) = (   0.5833333  -0.2500000   0.7500000), wk =   0.0555556
        k(   53) = (   0.5000000  -0.1666667   0.6666667), wk =   0.0555556
        k(   54) = (   0.4166667  -0.0833333   0.5833333), wk =   0.0555556
        k(   55) = (   0.3333333   0.0000000   0.5000000), wk =   0.0277778
        k(   56) = (  -0.1666667   0.6666667  -0.0000000), wk =   0.0277778
        k(   57) = (   0.7500000  -0.2500000   0.9166667), wk =   0.0555556
        k(   58) = (   0.6666667  -0.1666667   0.8333333), wk =   0.0555556
        k(   59) = (   0.5833333  -0.0833333   0.7500000), wk =   0.0555556
        k(   60) = (   0.5000000   0.0000000   0.6666667), wk =   0.0277778
        k(   61) = (   0.8333333  -0.1666667   1.0000000), wk =   0.0277778
        k(   62) = (   0.7500000  -0.0833333   0.9166667), wk =   0.0555556
        k(   63) = (   0.6666667   0.0000000   0.8333333), wk =   0.0277778
        k(   64) = (  -0.1666667  -1.0000000   0.0000000), wk =   0.0138889
        k(   65) = (   0.6666667  -0.3333333   1.0000000), wk =   0.0277778
        k(   66) = (   0.5833333  -0.2500000   0.9166667), wk =   0.0555556
        k(   67) = (   0.5000000  -0.1666667   0.8333333), wk =   0.0277778
        k(   68) = (   0.6666667  -0.1666667   1.0000000), wk =   0.0277778
        k(   69) = (   0.5833333  -0.0833333   0.9166667), wk =   0.0555556
        k(   70) = (   0.5000000   0.0000000   0.8333333), wk =   0.0277778
        k(   71) = (  -0.3333333  -1.0000000   0.0000000), wk =   0.0138889
        k(   72) = (  -0.5000000  -1.0000000   0.0000000), wk =   0.0069444

     Dense  grid:    26229 G-vectors     FFT dimensions: (  45,  45,  45)

     Smooth grid:     6615 G-vectors     FFT dimensions: (  27,  27,  27)

     Estimated max dynamical RAM per process >      20.95 MB

     Estimated total dynamical RAM >     104.77 MB

     The potential is recalculated from file :
     /Users/kirill/Documents/dft/volume/NiO_dos/out/NiO.save/charge-density

     Starting wfcs are   13 randomized atomic wfcs +   23 random wfcs

     Band Structure Calculation
     Davidson diagonalization with overlap

     ethr =  6.25E-12,  avg # of iterations = 43.0

     total cpu time spent up to now is       12.3 secs

     End of band structure calculation

          k = 0.0000 0.0000 0.0000 (   869 PWs)   bands (ev):

    -8.5853   8.8647   8.8647   8.8647   9.9756   9.9756   9.9756  10.3188
    10.3188  13.5919  29.6920  30.9962  30.9962  30.9962  34.6433  34.6433
    34.6433  38.1893  38.1893  48.5828  48.5828  48.5828  49.0989  67.1358
    67.1358  67.1358  68.8730  68.8730  69.2389  69.2389  69.2389  72.3943
    86.2678  86.2678  86.2678  91.0449

          k =-0.0833 0.0833-0.0833 (   860 PWs)   bands (ev):

    -8.5022   8.2069   8.4732   8.4732  10.0540  10.0540  10.1608  10.7179
    10.7179  14.0882  28.1539  30.7639  30.7639  31.8042  34.0248  34.0248
    35.5993  39.4066  39.4066  47.4024  48.5672  48.5672  50.4834  63.7327
    63.7327  67.3139  69.1802  69.1802  69.2691  72.4516  72.8263  72.8263
    84.8393  85.3311  85.3311  87.5890

          k =-0.1667 0.1667-0.1667 (   836 PWs)   bands (ev):

    -8.2666   6.9645   7.8223   7.8223  10.2094  10.2094  10.3873  11.4538
    11.4538  15.1716  26.0697  29.8255  29.8255  32.2637  33.7657  33.7657
    37.9339  41.5914  41.5914  45.8881  48.5565  48.5565  52.7199  60.1900
    60.1900  67.8467  69.1053  69.4937  69.4937  72.3604  77.3471  77.3471
    80.9895  80.9895  81.4697  85.1795

          k =-0.2500 0.2500-0.2500 (   827 PWs)   bands (ev):

    -7.9209   5.6686   7.2283   7.2283  10.4188  10.4188  10.6280  12.1813
    12.1813  16.3013  24.2326  28.4659  28.4659  32.5497  34.4060  34.4060
    40.3954  43.3312  43.3312  44.7778  48.9183  48.9183  55.6754  57.5810
    57.5810  67.8246  68.7286  69.9319  69.9319  71.6705  75.5372  75.5372
    78.8693  81.0814  81.0814  82.0894

          k =-0.3333 0.3333-0.3333 (   824 PWs)   bands (ev):

    -7.5410   4.5514   6.7710   6.7710  10.6345  10.6345  10.9036  12.7864
    12.7864  17.1176  22.9252  27.2361  27.2361  32.8898  35.5788  35.5788
    40.5872  43.3567  43.3567  46.4793  50.4513  50.4513  56.2254  56.2254
    59.0951  64.4862  69.4892  69.4892  69.9418  71.1460  71.6316  71.6316
    77.0842  79.0648  80.6370  81.1773

          k =-0.4167 0.4167-0.4167 (   829 PWs)   bands (ev):

    -7.2354   3.7851   6.4851   6.4851  10.7974  10.7974  11.1525  13.1917
    13.1917  17.4387  22.2997  26.4039  26.4039  33.2755  36.9960  36.9960
    39.4717  42.0981  42.0981  50.3082  52.2379  52.2379  56.4452  56.4452
    59.2651  63.5506  65.7780  65.7780  70.9838  71.4082  71.6370  71.6370
    73.7261  76.5110  79.4052  79.6720

          k = 0.5000-0.5000 0.5000 (   832 PWs)   bands (ev):

    -7.1164   3.5099   6.3880   6.3880  10.8582  10.8582  11.2579  13.3354
    13.3354  17.4712  22.1602  26.1098  26.1098  33.4750  37.8806  37.8806
    38.9377  41.1781  41.1781  52.7961  52.7961  54.6778  54.8203  57.4326
    57.4326  63.5995  63.5995  65.8957  70.9903  71.0949  71.8674  71.8674
    72.4581  75.0986  79.0895  79.0895

          k = 0.0000 0.1667 0.0000 (   857 PWs)   bands (ev):

    -8.4756   7.8185   8.5753   8.5753   9.9027  10.2861  10.2861  10.3463
    10.9242  14.2894  28.1762  30.2504  30.2504  32.0497  33.0648  35.8972
    35.8972  38.3448  40.3326  47.3539  48.4113  48.4113  50.9305  62.7456
    64.7851  64.7851  69.2167  69.3805  71.9020  71.9020  72.4690  73.6937
    84.4755  84.7141  84.7141  86.4518

          k =-0.0833 0.2500-0.0833 (   844 PWs)   bands (ev):

    -8.2940   6.9580   8.0265   8.1332   9.9465  10.3243  10.5017  10.8741
    11.4460  15.2050  26.6708  29.4490  29.5722  31.1982  33.9425  36.0051
    37.6962  39.9233  41.9516  46.1939  48.1873  48.5298  52.7653  59.6088
    62.1789  64.5283  69.4233  69.6480  72.4230  72.5422  74.9806  77.7138
    80.1214  81.6841  83.0828  84.2502

          k =-0.1667 0.3333-0.1667 (   838 PWs)   bands (ev):

    -7.9894   5.9235   7.3221   7.5443  10.1158  10.4908  10.6987  11.5541
    12.1296  16.3104  24.8275  28.0012  28.6288  31.8431  34.2828  36.0891
    40.2080  42.2059  43.4023  44.9945  47.9272  49.2171  55.3986  56.9582
    59.2507  65.0263  68.7905  70.2181  71.6363  72.7449  75.0409  78.6313
    78.7995  79.5196  79.7199  81.6384

          k =-0.2500 0.4167-0.2500 (   836 PWs)   bands (ev):

    -7.6250   4.8888   6.7845   7.0237  10.3464  10.6869  10.9188  12.2126
    12.7051  17.2549  23.2994  26.7675  27.6050  32.7594  34.7533  36.7796
    41.2006  43.1115  43.6196  46.0258  48.6278  50.8576  55.5459  56.9023
    58.7221  65.7891  66.1261  69.1657  70.9259  72.0159  72.2166  75.0858
    77.0056  77.1034  79.6385  81.6671

          k =-0.3333 0.5000-0.3333 (   832 PWs)   bands (ev):

    -7.2962   4.0741   6.4505   6.6454  10.5920  10.8323  11.1197  12.7742
    13.0458  17.7904  22.3818  25.9182  26.7689  33.6176  35.5590  37.7533
    40.1689  42.0931  43.2591  49.2514  50.7889  52.6256  55.4727  56.4038
    60.4554  63.1860  65.6319  66.2048  69.4233  71.4890  71.7948  72.5070
    74.5147  77.0159  78.1421  79.3434

          k = 0.5833-0.4167 0.5833 (   828 PWs)   bands (ev):

    -7.1135   3.6585   6.3203   6.4408  10.7763  10.8745  11.2286  13.1013
    13.1660  17.9276  22.0707  25.5191  26.3261  34.2531  36.3129  37.9276
    39.8689  41.4606  42.0989  52.5120  52.5228  53.5390  56.3757  56.8368
    57.8090  61.7759  64.1433  67.0072  69.2264  70.6731  71.3402  71.3909
    72.4673  76.3629  78.0480  78.8237

          k = 0.5000-0.3333 0.5000 (   825 PWs)   bands (ev):

    -7.1512   3.7415   6.3928   6.4218  10.7979  10.8227  11.1975  12.8853
    13.3137  17.9030  22.1333  25.5779  26.4058  34.3451  36.5283  36.8120
    40.5229  41.3920  42.4687  51.2386  52.5324  53.1770  55.8759  57.4953
    58.0713  63.5484  63.7568  66.3421  68.4762  71.1911  71.2437  71.9868
    73.1830  76.3029  77.5802  79.3101

          k = 0.4167-0.2500 0.4167 (   829 PWs)   bands (ev):

    -7.3932   4.3042   6.5871   6.6636  10.6261  10.7164  11.0535  12.4486
    13.1740  17.6467  22.6237  26.0544  27.0520  34.0395  34.8407  36.8122
    40.7847  42.4077  43.7023  48.0279  49.7808  52.5480  54.8927  56.7967
    60.5123  63.6644  67.0077  67.3201  68.0895  71.0585  72.7650  72.7797
    75.7704  76.9179  78.2968  80.1074

          k = 0.3333-0.1667 0.3333 (   826 PWs)   bands (ev):

    -7.7459   5.2229   6.9228   7.1188  10.4087  10.5416  10.8428  11.8577
    12.7618  16.9376  23.7483  26.8568  28.2252  33.3718  33.7296  36.1071
    41.4405  42.5549  44.1781  45.2055  48.0597  50.6548  55.4428  57.5053
    57.9983  65.8383  67.1965  69.5823  71.2432  72.0509  73.4971  75.0322
    77.6589  78.2680  80.0340  81.5697

          k = 0.2500-0.0833 0.2500 (   832 PWs)   bands (ev):

    -8.0997   6.3216   7.4000   7.7154  10.2040  10.3989  10.6030  11.1980
    12.1411  15.8832  25.3747  27.8878  29.8345  32.2314  33.3934  35.4048
    39.7149  41.3967  43.2839  45.0194  47.9974  49.3064  54.2422  57.5577
    60.5416  64.9430  69.0598  69.4786  72.1035  73.2003  76.5749  78.2463
    78.7555  79.9808  81.1642  81.4789

          k = 0.1667-0.0000 0.1667 (   839 PWs)   bands (ev):

    -8.3693   7.4046   7.9625   8.2963  10.0660  10.2755  10.3555  10.6977
    11.4094  14.7863  27.0488  29.2010  31.2843  31.9133  32.7466  34.9003
    37.3612  39.6590  41.3857  46.4641  48.2689  48.7806  51.8723  60.4745
    63.5857  64.6815  69.2490  69.3559  72.4062  72.4666  73.5056  76.5375
    82.3849  83.1744  83.2482  84.6075

          k = 0.0000 0.3333 0.0000 (   853 PWs)   bands (ev):

    -8.1771   6.4115   8.1320   8.1320   9.7055  10.4218  10.7622  10.7622
    11.3990  15.9061  26.6558  28.4069  29.2292  29.2292  36.2198  38.4506
    38.4506  38.8202  42.5081  46.1522  47.8939  47.8939  54.3368  58.0852
    62.1997  62.1997  69.7719  69.9167  72.3304  74.7740  74.7740  78.5493
    78.5493  79.4859  81.5126  81.6864

          k =-0.0833 0.4167-0.0833 (   838 PWs)   bands (ev):

    -7.9376   5.7501   7.6438   7.7806   9.7374  10.5410  10.9037  11.1160
    11.7840  16.8471  25.4518  26.6376  28.7137  29.7208  37.1417  38.1476
    40.6183  41.2420  43.1947  45.3732  47.4437  48.3504  55.8091  56.7401
    60.3242  61.8008  69.7547  70.1812  71.5549  73.6434  73.7074  77.2577
    77.4412  79.0160  80.3767  82.3646

          k =-0.1667 0.5000-0.1667 (   832 PWs)   bands (ev):

    -7.6248   5.0772   6.9583   7.3073   9.9453  10.7416  11.0290  11.6185
    12.2785  17.7686  23.7969  25.5375  28.0397  30.7844  37.3897  38.2873
    42.2508  43.0914  43.1596  45.9477  47.3263  50.2471  54.4112  57.7179
    59.7328  62.1435  67.5721  68.5135  70.8518  71.1495  72.1714  76.1724
    76.8661  78.5545  78.9767  79.0882

          k =-0.2500 0.5833-0.2500 (   824 PWs)   bands (ev):

    -7.3156   4.4701   6.4338   6.8870  10.2253  10.8866  11.1460  12.1795
    12.5830  18.5063  22.5082  24.8467  27.3669  31.9754  37.6036  38.6879
    41.0442  42.5984  43.7756  48.7751  49.3095  52.7408  54.2923  56.0192
    60.8175  62.7437  65.1171  65.2872  68.6572  70.7409  71.8837  73.3195
    74.4292  78.0385  78.1965  79.2970

          k = 0.6667-0.3333 0.6667 (   824 PWs)   bands (ev):

    -7.1040   4.0639   6.1652   6.5951  10.5194  10.9192  11.1970  12.6054
    12.7111  18.9246  21.8476  24.4435  26.8909  33.2164  37.5272  38.1752
    40.6262  42.2075  43.4381  51.8481  52.3959  52.7480  55.5161  57.0297
    58.4450  60.7056  62.9602  66.8216  67.9251  69.5823  69.9402  71.7684
    74.0318  75.7148  78.3674  78.4384

          k = 0.5833-0.2500 0.5833 (   833 PWs)   bands (ev):

    -7.0668   3.9871   6.1469   6.4613  10.7349  10.8376  11.1710  12.3808
    13.1086  18.9950  21.8031  24.2717  26.7680  34.5409  36.4851  36.9615
    41.3815  42.7289  43.0524  50.7058  53.4869  54.1295  55.9443  57.1361
    57.8476  61.8949  62.0533  66.3218  67.6483  68.0648  70.0602  71.6051
    74.1199  75.0282  78.5907  78.8484

          k = 0.5000-0.1667 0.5000 (   826 PWs)   bands (ev):

    -7.2192   4.2711   6.3602   6.4922  10.6737  10.7797  11.1266  11.9877
    13.2732  18.6928  22.3075  24.3684  27.0923  34.6849  35.8142  36.4007
    41.6457  42.7985  44.0572  48.5692  51.0601  53.2868  54.3964  57.5080
    61.0870  63.3370  64.4498  65.5220  66.7336  68.9916  70.1487  71.3212
    75.5937  77.8122  78.4891  79.5819

          k = 0.4167-0.0833 0.4167 (   830 PWs)   bands (ev):

    -7.5030   4.8374   6.6783   6.7753  10.4776  10.7330  11.0331  11.5118
    13.1486  17.9506  23.3611  24.8225  27.8743  33.1886  35.7381  36.5763
    41.5895  42.9569  44.6147  46.8945  47.5402  53.0349  53.4020  58.0705
    59.9970  63.1185  66.7806  68.7823  69.1012  70.8620  71.2362  71.3953
    78.0602  78.0884  79.6249  81.2507

          k = 0.3333 0.0000 0.3333 (   837 PWs)   bands (ev):

    -7.8251   5.5587   6.9950   7.3007  10.3048  10.6652  10.8446  11.1266
    12.7465  16.9242  24.5508  25.9187  28.9834  32.1968  34.8258  36.2476
    41.3864  43.0745  43.6446  44.4025  47.6218  50.8166  54.8130  57.0891
    60.0177  62.8422  69.0323  69.1571  71.4547  73.8488  73.9928  74.6878
    77.0404  79.4713  80.5837  81.7360

          k = 0.0000 0.5000 0.0000 (   833 PWs)   bands (ev):

    -7.7764   5.3733   7.7951   7.7951   9.4410  10.5256  11.0832  11.0832
    11.6294  17.5467  25.2543  25.5611  28.6497  28.6497  39.6396  39.9672
    41.5652  41.5652  42.8636  46.2076  47.0746  47.0746  53.9233  59.0230
    60.2475  60.2475  69.4155  70.0265  71.0180  71.0180  72.0234  74.8854
    78.1233  78.1233  80.1926  84.2928

          k =-0.0833 0.5833-0.0833 (   830 PWs)   bands (ev):

    -7.5407   5.0038   7.3669   7.5427   9.5041  10.6975  11.1401  11.2493
    11.8395  18.2303  23.9113  24.8414  28.3903  29.1473  39.8005  40.8145
    42.4742  43.5912  43.9202  45.6898  46.6045  48.7518  52.4520  58.7532
    59.8764  61.6567  66.7065  68.1568  68.6305  69.7191  72.2362  73.1042
    77.9591  78.4045  79.7678  82.5794

          k =-0.1667 0.6667-0.1667 (   826 PWs)   bands (ev):

    -7.2876   4.7252   6.6794   7.1734   9.7875  10.9222  11.1776  11.5766
    12.0624  18.8930  22.7271  24.1650  27.9944  30.1699  39.7851  40.9613
    41.7666  43.6294  44.0208  48.1864  48.3347  51.8037  52.3401  56.6005
    60.0387  61.0733  65.5262  65.6103  67.2420  68.7701  70.9748  72.9800
    76.8500  76.9596  79.2923  79.5536

          k = 0.7500-0.2500 0.7500 (   822 PWs)   bands (ev):

    -7.0874   4.5613   6.1004   6.8356  10.1374  10.9800  11.1871  12.0876
    12.0962  19.5767  21.8571  23.6812  27.5993  31.2660  38.8346  40.5519
    41.5131  43.1982  43.9747  51.1696  52.1163  52.9084  53.5057  56.7553
    57.1372  60.4199  63.4612  63.4832  66.5588  69.2940  70.7219  72.5976
    73.2911  77.3408  78.2449  79.1554

          k = 0.6667-0.1667 0.6667 (   823 PWs)   bands (ev):

    -7.0037   4.4918   5.8207   6.6018  10.4854  10.9089  11.1640  11.9146
    12.6428  20.1873  21.3718  23.2871  27.3399  32.4989  37.0006  39.5941
    42.1255  43.6956  44.1262  50.4674  53.4267  53.8749  56.3112  56.4187
    59.0192  60.2177  60.6077  62.3697  65.4554  68.9345  70.3110  72.0933
    73.9578  74.8741  78.1468  79.4039

          k = 0.5833-0.0833 0.5833 (   833 PWs)   bands (ev):

    -7.0659   4.4907   5.9166   6.4988  10.7450  10.7689  11.1575  11.6335
    13.0658  19.9884  21.8289  23.0498  27.3044  34.0077  35.2038  38.6770
    42.2546  44.3159  44.5046  48.0193  52.1130  54.4662  55.2489  58.3035
    60.2565  60.7312  62.9480  64.1728  65.0554  66.9283  68.7668  71.6592
    74.5139  76.8078  78.7256  79.5848

          k = 0.5000 0.0000 0.5000 (   837 PWs)   bands (ev):

    -7.2524   4.5918   6.3009   6.5288  10.6096  10.8562  11.1390  11.4122
    13.2545  19.0637  23.0922  23.0968  27.5105  33.8568  35.6127  37.5083
    41.6674  44.1818  44.6569  47.0672  50.3652  52.0228  55.6569  57.1803
    61.8323  62.3715  65.8898  66.3231  67.1046  67.2414  67.5815  71.2613
    76.9185  78.6686  79.1136  79.2419

          k = 0.0000 0.6667 0.0000 (   829 PWs)   bands (ev):

    -7.3934   4.8442   7.6023   7.6023   9.1822  10.6305  11.1907  11.1907
    11.6465  18.5000  23.2143  24.8423  28.5395  28.5395  40.8383  41.9842
    44.2716  44.9342  44.9342  46.2782  46.2782  47.6003  50.2895  58.8804
    58.8804  64.0885  65.2644  65.2644  66.4030  66.8030  72.7912  72.9160
    79.0319  79.0319  79.9613  81.7782

          k =-0.0833 0.7500-0.0833 (   825 PWs)   bands (ev):

    -7.2201   4.7555   7.1988   7.4273   9.3137  10.8235  11.1847  11.2248
    11.6622  18.7407  22.6981  24.3128  28.4636  28.9932  41.1204  41.6072
    44.7766  44.7988  44.9854  47.8619  48.1616  49.6299  50.2726  57.5673
    58.5233  61.0887  62.7742  64.0387  65.7740  67.8247  72.3035  73.4262
    76.7765  79.1630  79.7575  81.8443

          k = 0.8333-0.1667 0.8333 (   828 PWs)   bands (ev):

    -7.0669   4.8085   6.4490   7.1264   9.6859  11.0336  11.1750  11.4716
    11.6678  19.2019  22.3626  23.5975  28.2279  29.8006  40.0838  41.5836
    43.4313  44.1455  45.3459  50.6554  50.9729  51.6275  52.7924  56.1807
    57.4032  58.4262  60.8130  62.4675  66.0966  68.5843  70.8414  73.7588
    76.3810  76.6273  79.0231  79.7417

          k = 0.7500-0.0833 0.7500 (   820 PWs)   bands (ev):

    -6.9769   5.0114   5.6908   6.8317  10.1004  10.9949  11.1815  11.5870
    12.0347  19.9596  22.0639  22.8533  27.9200  30.8028  38.1685  41.5955
    42.4988  44.2415  46.0699  50.1583  52.5277  54.3336  54.5943  55.8535
    58.3881  59.0311  59.5474  61.3476  63.9711  67.0779  72.3056  73.1588
    74.1334  76.7587  77.6756  78.9654

          k = 0.6667 0.0000 0.6667 (   816 PWs)   bands (ev):

    -6.9764   4.9310   5.4802   6.6136  10.4844  10.8876  11.2114  11.4984
    12.6159  20.8854  21.3160  22.5587  27.5997  32.1996  36.4092  40.4418
    42.6629  44.3798  46.2939  47.6935  52.5707  54.5156  58.0771  58.2633
    58.9613  59.1358  59.7958  60.9954  63.3541  68.6065  68.7770  72.6869
    73.9744  76.0030  77.8910  79.5191

          k = 0.0000 0.8333 0.0000 (   818 PWs)   bands (ev):

    -7.1324   4.7376   7.5237   7.5237   8.9964  10.7078  11.1654  11.1654
    11.4604  18.4892  22.5930  24.4395  28.6764  28.6764  41.2491  42.4506
    45.1509  45.1509  47.1952  49.1058  49.1251  49.1251  49.1656  57.4977
    57.4977  60.3379  60.6356  60.6356  63.3078  69.9284  73.9520  73.9725
    78.8834  79.0165  79.5180  79.5180

          k = 0.9167-0.0833 0.9167 (   816 PWs)   bands (ev):

    -7.0494   4.7948   7.1142   7.3917   9.2100  10.9137  11.1389  11.1512
    11.4087  18.5856  22.5427  24.0759  28.6325  28.9927  41.2366  41.9895
    44.4115  44.7524  47.5265  48.9269  50.9622  51.4974  52.8446  55.5984
    56.3696  57.8343  59.4704  59.5469  63.0127  72.3155  73.0579  74.3229
    75.3873  78.1347  79.7107  81.3243

          k = 0.8333 0.0000 0.8333 (   820 PWs)   bands (ev):

    -6.9931   4.9492   6.3263   7.1192   9.6518  11.0727  11.1676  11.4163
    11.4392  19.1420  22.5219  23.3439  28.3695  29.6598  39.9542  41.7312
    43.2020  44.5858  49.3700  49.4816  49.8903  54.0545  54.4001  55.7586
    55.7915  58.5177  58.5293  59.2873  64.1450  68.3052  73.9789  74.2176
    75.5516  76.5334  78.1209  80.1029

          k = 0.0000-1.0000 0.0000 (   806 PWs)   bands (ev):

    -7.0425   4.7661   7.5065   7.5065   8.9291  10.7364  11.1364  11.1364
    11.3236  18.3228  22.5652  24.3103  28.7682  28.7682  40.9873  44.1922
    44.8556  44.8556  44.9558  49.9328  52.1632  52.1632  53.9772  54.9992
    55.1213  55.1213  59.2464  59.2464  62.0798  73.5695  73.6328  75.0345
    77.4517  77.8130  79.7125  79.7125

          k =-0.1667 0.3333 0.0000 (   842 PWs)   bands (ev):

    -8.0812   6.2055   7.5812   7.8298   9.9804  10.4948  10.7567  10.9320
    11.9557  16.1370  25.7257  27.3860  29.6693  30.5509  35.1629  36.5057
    40.1434  40.5757  43.2349  45.1489  47.8302  48.9172  54.8203  57.1581
    61.5112  62.6220  69.5170  69.8909  72.0232  74.7735  75.2697  77.5884
    77.7571  80.5499  81.4191  82.1705

          k =-0.2500 0.4167-0.0833 (   837 PWs)   bands (ev):

    -7.7722   5.3920   7.0421   7.3034  10.1444  10.6485  10.9150  11.3682
    12.5433  17.1725  24.2944  26.0157  28.5227  31.4884  35.8160  36.9690
    41.7364  42.5573  43.8621  44.8828  47.5019  50.3608  54.9508  57.7042
    59.1275  62.8385  68.6847  70.1092  70.2621  72.3829  73.5913  76.2635
    77.3693  79.0580  79.6683  80.8974

          k =-0.3333 0.5000-0.1667 (   829 PWs)   bands (ev):

    -7.4374   4.6269   6.5877   6.8422  10.3604  10.7841  11.0724  11.9173
    12.9482  18.0475  22.9213  25.2290  27.4920  32.7029  36.2188  37.3692
    41.5971  42.5736  44.1016  47.6277  48.3008  52.5970  54.0634  57.0648
    60.6309  63.5936  65.5442  66.8338  69.3765  70.7588  72.1543  73.8544
    75.7815  77.0472  79.0402  80.2689

          k = 0.5833-0.4167 0.7500 (   826 PWs)   bands (ev):

    -7.1725   4.0668   6.3000   6.5496  10.5943  10.8667  11.1690  12.4047
    13.0922  18.5576  22.0963  24.7925  26.8004  33.9988  36.2476  37.4946
    41.3734  41.8025  43.5057  50.0887  51.7776  53.4462  54.5893  57.3641
    59.5388  62.4012  64.6578  65.7090  67.0189  69.3109  72.1785  72.6429
    73.9025  75.2599  77.6701  79.9078

          k = 0.5000-0.3333 0.6667 (   826 PWs)   bands (ev):

    -7.0706   3.8599   6.2034   6.4498  10.7391  10.8522  11.1993  12.6474
    13.0670  18.6943  21.8556  24.6559  26.5557  35.2187  35.3083  37.8400
    40.8115  42.2239  42.7404  51.7465  52.7665  55.1372  55.5185  56.9309
    57.5864  60.7697  63.7143  66.3122  67.2051  69.4208  70.9569  72.5935
    73.4666  74.3277  76.2280  80.5492

          k =-0.1667 0.5000 0.0000 (   838 PWs)   bands (ev):

    -7.6981   5.2555   7.3351   7.4434   9.7827  10.6747  11.0759  11.1643
    12.0955  17.6939  24.8048  24.9480  28.4988  29.8334  38.5045  38.5712
    41.8715  43.1811  43.5238  44.8957  47.1158  49.2494  54.0433  59.2438
    59.7404  60.3869  69.0445  69.3649  70.0911  71.0733  72.2651  76.0063
    77.7844  78.0740  79.0145  81.8897

          k =-0.2500 0.5833-0.0833 (   831 PWs)   bands (ev):

    -7.4171   4.8203   6.7740   7.0472  10.0014  10.8428  11.1375  11.4484
    12.4497  18.5333  23.2957  24.3063  27.8828  30.8431  38.4152  39.2788
    42.0858  43.3166  44.2093  47.1221  47.3436  51.5650  53.2996  57.6356
    60.4439  61.6975  65.4125  67.1951  68.2922  70.8551  71.2564  74.3795
    75.6225  77.4969  78.1826  79.4259

          k = 0.6667-0.3333 0.8333 (   828 PWs)   bands (ev):

    -7.1693   4.4883   6.2640   6.7368  10.2691  10.9266  11.1759  11.8608
    12.6033  19.2807  22.1395  23.9503  27.2815  32.0440  37.6127  39.7327
    42.0819  42.6552  43.9231  49.1357  51.2097  53.1734  53.8547  56.8028
    59.3040  61.2433  64.0585  64.7841  67.2382  69.8349  70.6399  72.8533
    73.8657  75.7998  77.7619  79.4511

          k = 0.5833-0.2500 0.7500 (   828 PWs)   bands (ev):

    -7.0325   4.3082   6.0023   6.5404  10.5444  10.8790  11.1750  12.1260
    12.6782  19.7953  21.5337  23.7336  26.9252  33.2778  36.2759  39.8931
    41.6028  42.9430  43.7278  51.4876  52.5176  54.1862  55.4924  56.1532
    59.4059  59.9228  62.0847  63.1857  66.8614  69.1416  70.5491  72.3119
    74.1899  74.6124  76.3544  78.4261

          k = 0.5000-0.1667 0.6667 (   827 PWs)   bands (ev):

    -7.0555   4.3268   6.0343   6.4817  10.6678  10.8128  11.1562  11.9363
    12.9272  19.7570  21.6851  23.6039  26.9437  34.3222  35.0818  39.1210
    42.1531  43.2246  43.8734  49.6293  52.9280  54.1465  55.0724  57.6219
    58.9265  60.9438  62.9833  64.6643  64.7603  68.3421  70.1163  72.8882
    74.0858  74.8897  77.1865  78.9769

          k = 0.4167-0.0833 0.5833 (   826 PWs)   bands (ev):

    -7.2300   4.5424   6.3388   6.5630  10.5025  10.8567  11.1437  11.5761
    13.0623  19.1206  22.5767  23.6556  27.3379  33.1919  36.1713  38.3110
    41.8858  43.7660  44.2816  47.5481  50.6029  52.4022  54.9845  57.2905
    61.0264  62.3813  64.3500  65.6034  66.7663  68.4791  69.7469  72.3116
    76.0722  76.6990  78.4598  79.2521

          k = 0.3333 0.0000 0.5000 (   830 PWs)   bands (ev):

    -7.4955   4.9122   6.7538   6.8369  10.3120  10.8135  11.0766  11.3015
    12.9300  18.1791  23.7703  24.1922  27.9779  32.0385  37.0643  37.3166
    41.6002  43.4472  44.6005  46.3850  47.4046  52.3366  53.5001  58.5350
    60.4567  61.2986  67.8179  68.4285  68.4784  69.1215  72.4005  72.8318
    77.5400  78.7338  78.7352  80.1240

          k =-0.1667 0.6667-0.0000 (   832 PWs)   bands (ev):

    -7.3375   4.8094   7.1845   7.1899   9.5935  10.8169  11.1876  11.2526
    11.9447  18.7405  23.0836  24.2481  28.1619  29.5651  39.8941  42.0360
    42.3993  44.5053  44.6679  46.3250  47.4089  50.2540  51.6813  58.4555
    58.4995  62.9054  63.6300  66.0917  67.9826  68.1918  72.1654  72.2266
    77.0274  77.2325  80.1585  81.0438

          k = 0.7500-0.2500 0.9167 (   824 PWs)   bands (ev):

    -7.1410   4.7456   6.5380   6.9342   9.8878  10.9647  11.1820  11.4019
    12.0600  19.3282  22.4193  23.6589  27.6824  30.5499  38.9119  42.1168
    43.2178  43.8756  44.2093  47.9854  51.0317  51.5190  53.6244  56.6036
    58.6705  59.1577  61.5916  65.9285  68.0452  68.6536  69.4410  72.3219
    74.7418  76.9634  77.5126  80.6002

          k = 0.6667-0.1667 0.8333 (   828 PWs)   bands (ev):

    -7.0069   4.8121   5.9209   6.6989  10.2182  10.9578  11.1708  11.6528
    12.1554  20.0688  21.8496  23.2076  27.2623  31.6230  37.4061  42.1657
    42.7624  43.7301  44.3439  51.1149  52.3715  52.6869  55.3961  55.6857
    58.1241  59.5324  60.0274  63.1384  65.8153  68.8317  69.9645  72.2185
    74.0737  75.3919  77.3171  78.1314

          k = 0.5833-0.0833 0.7500 (   825 PWs)   bands (ev):

    -6.9764   4.8368   5.6475   6.5389  10.5386  10.8457  11.1755  11.5881
    12.5209  20.9392  21.2323  22.8301  27.0893  32.8714  35.7470  41.2405
    42.7284  43.9804  45.1832  49.0593  52.9274  54.2444  55.7742  58.4244
    58.5882  59.2156  60.2856  62.7078  64.5974  66.8192  69.5579  74.1814
    74.4749  74.5126  75.7880  77.1780

          k = 0.5000 0.0000 0.6667 (   827 PWs)   bands (ev):

    -7.0594   4.6507   5.9131   6.4831  10.6849  10.7808  11.1968  11.4494
    12.8955  20.2663  21.9496  22.7895  27.1588  34.2534  34.4523  40.0000
    42.5355  44.1369  45.4152  47.0936  51.9278  54.3249  56.1166  57.1568
    59.8703  60.1076  63.2171  64.8560  65.1809  65.8744  69.0076  72.6828
    74.9378  76.2205  76.6523  77.2864

          k = 0.8333-0.1667 1.0000 (   818 PWs)   bands (ev):

    -7.0963   4.7867   7.0573   7.0973   9.4672  10.9311  11.1649  11.1936
    11.6257  18.8815  22.5250  23.9584  28.0970  29.5874  40.5019  41.7883
    44.3556  44.9645  47.0619  47.3305  49.6451  51.7058  52.2322  56.7851
    57.1443  59.0150  59.8576  62.6803  64.6952  70.3580  72.5254  73.0273
    75.6283  76.1435  80.3157  81.5949

          k = 0.7500-0.0833 0.9167 (   822 PWs)   bands (ev):

    -6.9997   4.9485   6.3559   6.8834   9.8316  11.0428  11.1552  11.2707
    11.6993  19.3804  22.4611  23.3700  27.5733  30.4798  38.9832  41.9298
    44.1428  44.3342  47.1885  49.5413  51.4979  52.4593  54.4751  55.8342
    57.2851  57.7050  58.8344  61.3282  65.1057  68.4989  72.5864  73.3853
    73.9974  75.8533  77.0383  80.1404

          k = 0.6667 0.0000 0.8333 (   826 PWs)   bands (ev):

    -6.9559   5.2236   5.5819   6.6852  10.2055  10.9732  11.1777  11.4119
    12.0262  20.1618  22.4378  22.5236  27.2439  31.4982  37.2300  42.4361
    42.8113  44.2280  47.9630  48.2117  52.8312  54.0954  54.6101  55.4631
    58.6277  59.0799  60.6596  60.7792  63.9813  66.7033  70.1148  74.3863
    75.0772  75.0875  75.8282  77.5943

          k =-0.1667-1.0000 0.0000 (   814 PWs)   bands (ev):

    -7.0143   4.8587   7.0175   7.0602   9.4246  11.0035  11.1176  11.1366
    11.4437  18.7661  22.5416  23.8687  28.0874  29.6384  40.8556  41.3790
    44.7060  44.8872  47.2405  50.7210  50.9575  52.3433  52.6527  56.2704
    56.4410  57.0169  58.5208  59.1039  63.1108  73.2873  73.4254  74.0253
    74.2921  74.6179  80.0318  81.6102

          k = 0.6667-0.3333 1.0000 (   834 PWs)   bands (ev):

    -7.2012   4.7011   6.5086   6.6324  10.2349  10.9008  11.1845  11.3613
    12.5878  19.3972  22.7020  23.3634  27.3913  31.7222  37.3004  40.8326
    42.2907  43.9428  44.7204  46.6277  50.6323  51.9203  54.6855  57.4282
    59.1092  61.7004  61.8237  66.8990  67.7216  69.2236  71.0457  71.6675
    72.9758  76.6762  78.5672  78.5894

          k = 0.5833-0.2500 0.9167 (   826 PWs)   bands (ev):

    -7.0375   4.7196   6.0351   6.4866  10.4713  10.8614  11.1726  11.5256
    12.5165  20.2749  21.8570  23.1407  26.8364  32.9300  35.8051  41.7912
    42.9987  43.5051  44.4565  48.4128  52.3622  54.3032  55.1011  57.3660
    57.6418  59.9477  61.2728  64.0770  67.2691  68.8903  69.9896  70.6887
    72.5016  75.8147  76.5769  77.8595

          k = 0.5000-0.1667 0.8333 (   826 PWs)   bands (ev):

    -6.9763   4.7682   5.8133   6.4402  10.6325  10.7539  11.1643  11.6777
    12.4118  21.0275  21.1237  23.1353  26.5865  33.8869  34.7543  42.5808
    42.6308  43.6452  43.8845  50.9996  52.4593  53.2340  55.0139  58.3377
    58.9374  59.2765  60.1428  63.8167  64.4181  68.8528  69.9006  70.6056
    74.6169  74.7015  75.1476  77.9820

          k = 0.6667-0.1667 1.0000 (   826 PWs)   bands (ev):

    -7.0167   4.9175   6.3207   6.4930  10.1826  10.9431  11.1648  11.2938
    12.0649  19.9210  22.3193  23.1958  26.8596  31.6434  37.2967  42.6000
    43.7698  44.1844  46.6946  46.8556  51.8904  54.5097  54.7544  55.9557
    57.4936  58.5540  58.7328  65.1449  67.6378  68.6352  69.4176  70.9981
    71.6887  75.9281  77.4343  78.5203

          k = 0.5833-0.0833 0.9167 (   828 PWs)   bands (ev):

    -6.9489   5.2111   5.7734   6.3602  10.4626  10.8697  11.1521  11.3267
    12.0726  20.5555  22.2435  22.8473  26.2238  32.8545  35.7516  42.6883
    43.8170  44.3305  46.2785  49.4703  52.2101  53.4303  54.5179  55.8393
    57.6023  59.4246  61.8418  63.2242  65.4159  67.5059  68.3497  69.5334
    73.2334  75.1703  76.1157  78.5207

          k = 0.5000 0.0000 0.8333 (   826 PWs)   bands (ev):

    -6.9566   5.1311   5.6853   6.3567  10.6876  10.7089  11.1691  11.3665
    12.2668  20.9083  21.9122  22.7009  26.3014  34.1820  34.2670  43.0232
    43.2955  43.6272  47.1585  47.2964  53.0887  54.6333  55.3158  55.3387
    58.0512  58.8144  63.5820  64.1641  64.6876  65.0454  69.5463  70.4808
    72.8900  74.6524  76.2577  77.7599

          k =-0.3333-1.0000 0.0000 (   832 PWs)   bands (ev):

    -6.9570   5.1392   6.2604   6.3724  10.1676  11.0149  11.1369  11.1565
    11.8333  19.9066  22.5316  23.1533  26.5472  31.6501  37.3682  42.1935
    44.1826  44.9542  47.9756  49.4639  51.5310  52.8091  52.9618  56.6585
    57.0492  59.6940  59.7719  60.8310  65.8207  68.8230  68.8822  70.7584
    74.2349  74.7561  77.0113  78.6564

          k =-0.5000-1.0000 0.0000 (   848 PWs)   bands (ev):

    -6.9279   5.6108   5.6108   6.0852  10.7220  10.7220  11.1370  11.1798
    12.0128  20.7221  22.6890  22.6890  25.5626  34.2749  34.2749  42.6870
    43.8401  44.9899  48.4819  48.4819  51.1367  53.1687  55.0677  55.0677
    56.2161  61.7318  64.2581  64.2581  65.1215  65.1215  66.3699  68.3817
    71.9144  75.8907  75.8907  78.6691

     the Fermi energy is    11.9802 ev
     (compare with:    13.3353 eV, computed in scf)

     Writing all to output data dir /Users/kirill/Documents/dft/volume/NiO_dos/out/NiO.save/ :
     XML data file, pseudopotentials, collected wavefunctions

     init_run     :      0.12s CPU      0.12s WALL (       1 calls)
     electrons    :     11.88s CPU     12.10s WALL (       1 calls)

     Called by init_run:
     wfcinit      :      0.00s CPU      0.00s WALL (       1 calls)
     potinit      :      0.01s CPU      0.01s WALL (       1 calls)
     hinit0       :      0.08s CPU      0.08s WALL (       1 calls)

     Called by electrons:
     c_bands      :     11.61s CPU     11.82s WALL (       1 calls)
     v_of_rho     :      0.01s CPU      0.01s WALL (       1 calls)
     newd         :      0.01s CPU      0.01s WALL (       1 calls)

     Called by c_bands:
     init_us_2    :      0.00s CPU      0.00s WALL (      72 calls)
     cegterg      :     11.32s CPU     11.53s WALL (     184 calls)

     Called by *egterg:
     cdiaghg      :      3.90s CPU      3.93s WALL (    3168 calls)
     h_psi        :      6.34s CPU      6.50s WALL (    3352 calls)
     s_psi        :      0.08s CPU      0.08s WALL (    3352 calls)
     g_psi        :      0.02s CPU      0.02s WALL (    3096 calls)

     Called by h_psi:
     h_psi:calbec :      0.16s CPU      0.16s WALL (    3352 calls)
     vloc_psi     :      6.08s CPU      6.23s WALL (    3352 calls)
                                        0.00s GPU  (    3352 calls)
     add_vuspsi   :      0.09s CPU      0.09s WALL (    3352 calls)

     General routines
     calbec       :      0.16s CPU      0.16s WALL (    3352 calls)
     fft          :      0.01s CPU      0.01s WALL (      13 calls)
     ffts         :      0.00s CPU      0.00s WALL (       1 calls)
     fftw         :      5.82s CPU      5.94s WALL (  141580 calls)
     interpolate  :      0.00s CPU      0.00s WALL (       1 calls)
     davcio       :      0.00s CPU      0.00s WALL (     144 calls)

     Parallel routines

     PWSCF        :     12.13s CPU     12.37s WALL


   This run was terminated on:  20:32:24  25Feb2026            

=------------------------------------------------------------------------------=
   JOB DONE.
=------------------------------------------------------------------------------=
