
     Program PWSCF v.7.5 starts on 25Feb2026 at 20:32:10 

     This program is part of the open-source Quantum ESPRESSO suite
     for quantum simulation of materials; please cite
         "P. Giannozzi et al., J. Phys.:Condens. Matter 21 395502 (2009);
         "P. Giannozzi et al., J. Phys.:Condens. Matter 29 465901 (2017);
         "P. Giannozzi et al., J. Chem. Phys. 152 154105 (2020);
          URL http://www.quantum-espresso.org", 
     in publications or presentations arising from this work. More details at
     http://www.quantum-espresso.org/quote

     Parallel version (MPI), running on     5 processors

     MPI processes distributed on     1 nodes
     0 MiB available memory on the printing compute node when the environment starts

     Reading input from NiO.scf.in

     Current dimensions of program PWSCF are:
     Max number of different atomic species (ntypx) = 10
     Max number of k-points (npk) =  40000
     Max angular momentum in pseudopotentials (lmaxx) =  4
     file Ni.pbesol-n-rrkjus_psl.0.1.UPF: wavefunction(s)  3D renormalized

     R & G space division:  proc/nbgrp/npool/nimage =       5
     Subspace diagonalization in iterative solution of the eigenvalue problem:
     a serial algorithm will be used


     Parallelization info
     --------------------
     sticks:   dense  smooth     PW     G-vecs:    dense   smooth      PW
     Min         231      92     30                 5243     1322     241
     Max         232      93     31                 5247     1324     244
     Sum        1159     463    151                26229     6615    1211

     Using Slab Decomposition



     bravais-lattice index     =            2
     lattice parameter (alat)  =       7.8370  a.u.
     unit-cell volume          =     120.3343 (a.u.)^3
     number of atoms/cell      =            2
     number of atomic types    =            2
     number of electrons       =        16.00
     number of Kohn-Sham states=           36
     kinetic-energy cutoff     =      55.0000  Ry
     charge density cutoff     =     550.0000  Ry
     scf convergence threshold =      1.0E-09
     mixing beta               =       0.3000
     number of iterations used =            8  plain     mixing
     Exchange-correlation= PBESOL
                           (   1   4  10   8   0   0   0)

     celldm(1)=   7.837000  celldm(2)=   0.000000  celldm(3)=   0.000000
     celldm(4)=   0.000000  celldm(5)=   0.000000  celldm(6)=   0.000000

     crystal axes: (cart. coord. in units of alat)
               a(1) = (  -0.500000   0.000000   0.500000 )  
               a(2) = (   0.000000   0.500000   0.500000 )  
               a(3) = (  -0.500000   0.500000   0.000000 )  

     reciprocal axes: (cart. coord. in units 2 pi/alat)
               b(1) = ( -1.000000 -1.000000  1.000000 )  
               b(2) = (  1.000000  1.000000  1.000000 )  
               b(3) = ( -1.000000  1.000000 -1.000000 )  


     PseudoPot. # 1 for Ni read from file:
     /Users/kirill/Documents/dft/volume/NiO_dos/../../pot/Ni.pbesol-n-rrkjus_psl.0.1.UPF
     MD5 check sum: 8a65ecc087b22b902f7e15bb4f925df7
     Pseudo is Ultrasoft + core correction, Zval = 10.0
     Generated using "atomic" code by A. Dal Corso  v.5.0.2 svn rev. 9415
     Using radial grid of 1195 points,  6 beta functions with: 
                l(1) =   0
                l(2) =   0
                l(3) =   1
                l(4) =   1
                l(5) =   2
                l(6) =   2
     Q(r) pseudized with 0 coefficients 


     PseudoPot. # 2 for O  read from file:
     /Users/kirill/Documents/dft/volume/NiO_dos/../../pot/O.pbesol-n-rrkjus_psl.1.0.0.UPF
     MD5 check sum: 69b2cf9905362d8720b1d83b4ba3171b
     Pseudo is Ultrasoft + core correction, Zval =  6.0
     Generated using &quot;atomic&quot; code by A. Dal Corso  v.6.3MaX
     Using radial grid of 1095 points,  4 beta functions with: 
                l(1) =   0
                l(2) =   0
                l(3) =   1
                l(4) =   1
     Q(r) pseudized with 0 coefficients 


     atomic species   valence    mass     pseudopotential
     Ni               10.00    58.69340     Ni( 1.00)
     O                 6.00    15.99900     O ( 1.00)

     48 Sym. Ops., with inversion, found



   Cartesian axes

     site n.     atom                  positions (alat units)
         1        Ni     tau(   1) = (   0.0000000   0.0000000   0.0000000  )
         2        O      tau(   2) = (   0.5000000   0.5000000   0.5000000  )

     number of k points=     8
                       cart. coord. in units 2pi/alat
        k(    1) = (   0.0000000   0.0000000   0.0000000), wk =   0.0312500
        k(    2) = (  -0.2500000   0.2500000  -0.2500000), wk =   0.2500000
        k(    3) = (   0.5000000  -0.5000000   0.5000000), wk =   0.1250000
        k(    4) = (   0.0000000   0.5000000   0.0000000), wk =   0.1875000
        k(    5) = (   0.7500000  -0.2500000   0.7500000), wk =   0.7500000
        k(    6) = (   0.5000000   0.0000000   0.5000000), wk =   0.3750000
        k(    7) = (   0.0000000  -1.0000000   0.0000000), wk =   0.0937500
        k(    8) = (  -0.5000000  -1.0000000   0.0000000), wk =   0.1875000

     Dense  grid:    26229 G-vectors     FFT dimensions: (  45,  45,  45)

     Smooth grid:     6615 G-vectors     FFT dimensions: (  27,  27,  27)

     Estimated max dynamical RAM per process >      23.18 MB

     Estimated total dynamical RAM >     115.90 MB

     Initial potential from superposition of free atoms

     starting charge      15.9998, renormalised to      16.0000
     Starting wfcs are   13 randomized atomic wfcs +   23 random wfcs

     total cpu time spent up to now is        0.2 secs

     Self-consistent Calculation

     iteration #  1     ecut=    55.00 Ry     beta= 0.30
     Davidson diagonalization with overlap
     ethr =  1.00E-02,  avg # of iterations =  6.9

     Threshold (ethr) on eigenvalues was too large:
     Diagonalizing with lowered threshold

     Davidson diagonalization with overlap
     ethr =  8.04E-04,  avg # of iterations =  1.1

     total cpu time spent up to now is        0.6 secs

     total energy              =    -132.44638920 Ry
     estimated scf accuracy    <       0.12875072 Ry

     iteration #  2     ecut=    55.00 Ry     beta= 0.30
     Davidson diagonalization with overlap
     ethr =  8.05E-04,  avg # of iterations =  1.4

     total cpu time spent up to now is        0.7 secs

     total energy              =    -132.45427907 Ry
     estimated scf accuracy    <       0.02972069 Ry

     iteration #  3     ecut=    55.00 Ry     beta= 0.30
     Davidson diagonalization with overlap
     ethr =  1.86E-04,  avg # of iterations =  2.0

     total cpu time spent up to now is        0.8 secs

     total energy              =    -132.45677178 Ry
     estimated scf accuracy    <       0.01790009 Ry

     iteration #  4     ecut=    55.00 Ry     beta= 0.30
     Davidson diagonalization with overlap
     ethr =  1.12E-04,  avg # of iterations =  1.5

     total cpu time spent up to now is        0.9 secs

     total energy              =    -132.45820210 Ry
     estimated scf accuracy    <       0.00227798 Ry

     iteration #  5     ecut=    55.00 Ry     beta= 0.30
     Davidson diagonalization with overlap
     ethr =  1.42E-05,  avg # of iterations =  3.5

     total cpu time spent up to now is        1.0 secs

     total energy              =    -132.45834613 Ry
     estimated scf accuracy    <       0.00051300 Ry

     iteration #  6     ecut=    55.00 Ry     beta= 0.30
     Davidson diagonalization with overlap
     ethr =  3.21E-06,  avg # of iterations =  2.0

     total cpu time spent up to now is        1.2 secs

     total energy              =    -132.45841477 Ry
     estimated scf accuracy    <       0.00000047 Ry

     iteration #  7     ecut=    55.00 Ry     beta= 0.30
     Davidson diagonalization with overlap
     ethr =  2.95E-09,  avg # of iterations =  5.8

     total cpu time spent up to now is        1.3 secs

     total energy              =    -132.45841465 Ry
     estimated scf accuracy    <       0.00000334 Ry

     iteration #  8     ecut=    55.00 Ry     beta= 0.30
     Davidson diagonalization with overlap
     ethr =  2.95E-09,  avg # of iterations =  1.2

     total cpu time spent up to now is        1.4 secs

     total energy              =    -132.45841517 Ry
     estimated scf accuracy    <       0.00000003 Ry

     iteration #  9     ecut=    55.00 Ry     beta= 0.30
     Davidson diagonalization with overlap
     ethr =  1.84E-10,  avg # of iterations =  1.5

     total cpu time spent up to now is        1.6 secs

     total energy              =    -132.45841517 Ry
     estimated scf accuracy    <          1.6E-09 Ry

     iteration # 10     ecut=    55.00 Ry     beta= 0.30
     Davidson diagonalization with overlap
     ethr =  1.01E-11,  avg # of iterations =  2.0

     total cpu time spent up to now is        1.7 secs

     End of self-consistent calculation

          k = 0.0000 0.0000 0.0000 (   869 PWs)   bands (ev):

    -8.5851   8.8648   8.8648   8.8648   9.9753   9.9753   9.9753  10.3185
    10.3185  13.5919  29.6920  30.9961  30.9961  30.9961  34.6433  34.6433
    34.6433  38.1893  38.1893  48.5829  48.5829  48.5829  49.0988  67.1358
    67.1358  67.1358  68.8730  68.8730  69.2389  69.2389  69.2389  72.3943
    86.2678  86.2678  86.2678  91.0450

          k =-0.2500 0.2500-0.2500 (   827 PWs)   bands (ev):

    -7.9207   5.6687   7.2283   7.2283  10.4185  10.4185  10.6278  12.1812
    12.1812  16.3014  24.2326  28.4659  28.4659  32.5496  34.4060  34.4060
    40.3953  43.3312  43.3312  44.7778  48.9183  48.9183  55.6753  57.5810
    57.5810  67.8246  68.7285  69.9319  69.9319  71.6706  75.5371  75.5371
    78.8693  81.0813  81.0813  82.0894

          k = 0.5000-0.5000 0.5000 (   832 PWs)   bands (ev):

    -7.1162   3.5100   6.3880   6.3880  10.8579  10.8579  11.2577  13.3353
    13.3353  17.4712  22.1602  26.1097  26.1097  33.4749  37.8806  37.8806
    38.9378  41.1781  41.1781  52.7961  52.7961  54.6778  54.8203  57.4326
    57.4326  63.5995  63.5995  65.8956  70.9903  71.0948  71.8674  71.8674
    72.4581  75.0986  79.0894  79.0894

          k = 0.0000 0.5000 0.0000 (   833 PWs)   bands (ev):

    -7.7762   5.3734   7.7952   7.7952   9.4408  10.5254  11.0830  11.0830
    11.6292  17.5468  25.2543  25.5611  28.6497  28.6497  39.6396  39.9672
    41.5652  41.5652  42.8636  46.2075  47.0747  47.0747  53.9233  59.0230
    60.2475  60.2475  69.4155  70.0265  71.0180  71.0180  72.0234  74.8854
    78.1233  78.1233  80.1926  84.2928

          k = 0.7500-0.2500 0.7500 (   822 PWs)   bands (ev):

    -7.0873   4.5613   6.1004   6.8356  10.1371  10.9797  11.1869  12.0874
    12.0960  19.5767  21.8571  23.6812  27.5993  31.2660  38.8345  40.5519
    41.5131  43.1982  43.9747  51.1695  52.1163  52.9084  53.5057  56.7553
    57.1372  60.4199  63.4612  63.4831  66.5588  69.2940  70.7219  72.5976
    73.2911  77.3408  78.2449  79.1554

          k = 0.5000 0.0000 0.5000 (   837 PWs)   bands (ev):

    -7.2523   4.5918   6.3009   6.5288  10.6094  10.8559  11.1388  11.4120
    13.2544  19.0638  23.0922  23.0968  27.5105  33.8568  35.6127  37.5083
    41.6674  44.1818  44.6569  47.0672  50.3652  52.0228  55.6569  57.1803
    61.8323  62.3715  65.8898  66.3231  67.1046  67.2414  67.5815  71.2613
    76.9185  78.6686  79.1137  79.2419

          k = 0.0000-1.0000 0.0000 (   806 PWs)   bands (ev):

    -7.0423   4.7662   7.5066   7.5066   8.9289  10.7362  11.1361  11.1361
    11.3233  18.3227  22.5653  24.3102  28.7682  28.7682  40.9873  44.1922
    44.8556  44.8556  44.9558  49.9327  52.1632  52.1632  53.9772  54.9992
    55.1212  55.1212  59.2464  59.2464  62.0798  73.5694  73.6329  75.0345
    77.4517  77.8130  79.7125  79.7125

          k =-0.5000-1.0000 0.0000 (   848 PWs)   bands (ev):

    -6.9277   5.6108   5.6108   6.0853  10.7218  10.7218  11.1368  11.1796
    12.0126  20.7221  22.6891  22.6891  25.5625  34.2749  34.2749  42.6870
    43.8401  44.9899  48.4818  48.4818  51.1366  53.1687  55.0677  55.0677
    56.2161  61.7318  64.2581  64.2581  65.1215  65.1215  66.3699  68.3817
    71.9144  75.8906  75.8906  78.6692

     highest occupied, lowest unoccupied level (ev):    13.3353   10.3185

!    total energy              =    -132.45841518 Ry
     estimated scf accuracy    <          4.2E-10 Ry

     The total energy is the sum of the following terms:
     one-electron contribution =     -14.45648046 Ry
     hartree contribution      =      26.87322532 Ry
     xc contribution           =     -48.62542312 Ry
     ewald contribution        =     -96.24973692 Ry

     convergence has been achieved in  10 iterations

     Writing all to output data dir /Users/kirill/Documents/dft/volume/NiO_dos/out/NiO.save/ :
     XML data file, charge density, pseudopotentials, collected wavefunctions

     init_run     :      0.15s CPU      0.15s WALL (       1 calls)
     electrons    :      1.44s CPU      1.47s WALL (       1 calls)

     Called by init_run:
     wfcinit      :      0.03s CPU      0.03s WALL (       1 calls)
     potinit      :      0.01s CPU      0.01s WALL (       1 calls)
     hinit0       :      0.08s CPU      0.08s WALL (       1 calls)

     Called by electrons:
     c_bands      :      1.02s CPU      1.04s WALL (      11 calls)
     sum_band     :      0.26s CPU      0.26s WALL (      11 calls)
     v_of_rho     :      0.06s CPU      0.06s WALL (      11 calls)
     newd         :      0.10s CPU      0.10s WALL (      11 calls)
     mix_rho      :      0.01s CPU      0.01s WALL (      11 calls)

     Called by c_bands:
     init_us_2    :      0.00s CPU      0.00s WALL (     184 calls)
     cegterg      :      1.01s CPU      1.03s WALL (      88 calls)

     Called by *egterg:
     cdiaghg      :      0.26s CPU      0.27s WALL (     311 calls)
     h_psi        :      0.67s CPU      0.69s WALL (     327 calls)
     s_psi        :      0.01s CPU      0.01s WALL (     327 calls)
     g_psi        :      0.00s CPU      0.00s WALL (     231 calls)

     Called by h_psi:
     h_psi:calbec :      0.02s CPU      0.02s WALL (     327 calls)
     vloc_psi     :      0.64s CPU      0.66s WALL (     327 calls)
                                        0.00s GPU  (     327 calls)
     add_vuspsi   :      0.01s CPU      0.01s WALL (     327 calls)

     General routines
     calbec       :      0.02s CPU      0.02s WALL (     415 calls)
     fft          :      0.05s CPU      0.05s WALL (     142 calls)
     ffts         :      0.00s CPU      0.00s WALL (      22 calls)
     fftw         :      0.74s CPU      0.76s WALL (   18288 calls)
     interpolate  :      0.00s CPU      0.00s WALL (      11 calls)

     Parallel routines

     PWSCF        :      1.66s CPU      1.70s WALL


   This run was terminated on:  20:32:11  25Feb2026            

=------------------------------------------------------------------------------=
   JOB DONE.
=------------------------------------------------------------------------------=
