
     Program PWSCF v.7.5 starts on 18Mar2026 at 16:31:40 

     This program is part of the open-source Quantum ESPRESSO suite
     for quantum simulation of materials; please cite
         "P. Giannozzi et al., J. Phys.:Condens. Matter 21 395502 (2009);
         "P. Giannozzi et al., J. Phys.:Condens. Matter 29 465901 (2017);
         "P. Giannozzi et al., J. Chem. Phys. 152 154105 (2020);
          URL http://www.quantum-espresso.org", 
     in publications or presentations arising from this work. More details at
     http://www.quantum-espresso.org/quote

     Parallel version (MPI), running on     5 processors

     MPI processes distributed on     1 nodes
     0 MiB available memory on the printing compute node when the environment starts

     Reading input from NiO.vc_relax_dft_U.in

     Current dimensions of program PWSCF are:
     Max number of different atomic species (ntypx) = 10
     Max number of k-points (npk) =  40000
     Max angular momentum in pseudopotentials (lmaxx) =  4
     file Ni.pbesol-n-rrkjus_psl.0.1.UPF: wavefunction(s)  3D renormalized
     file Ni.pbesol-n-rrkjus_psl.0.1.UPF: wavefunction(s)  3D renormalized

     R & G space division:  proc/nbgrp/npool/nimage =       5
     Subspace diagonalization in iterative solution of the eigenvalue problem:
     a serial algorithm will be used


     Parallelization info
     --------------------
     sticks:   dense  smooth     PW     G-vecs:    dense   smooth      PW
     Min         449     179     58                10627     2697     500
     Max         450     180     60                10628     2698     501
     Sum        2249     899    295                53137    13489    2503

     Using Slab Decomposition



     bravais-lattice index     =            5
     lattice parameter (alat)  =       9.6470  a.u.
     unit-cell volume          =     244.3487 (a.u.)^3
     number of atoms/cell      =            4
     number of atomic types    =            3
     number of electrons       =        32.00 (up:  16.00, down:  16.00)
     number of Kohn-Sham states=           16
     kinetic-energy cutoff     =      55.0000  Ry
     charge density cutoff     =     550.0000  Ry
     scf convergence threshold =      1.0E-09
     mixing beta               =       0.2000
     number of iterations used =            8  plain     mixing
     energy convergence thresh.=      1.0E-05
     force convergence thresh. =      1.0E-04
     press convergence thresh. =      5.0E-01
     Exchange-correlation= PBESOL
                           (   1   4  10   8   0   0   0)
     nstep                     =           50

     Hubbard projectors: ortho-atomic
     Hubbard parameters of DFT+U (Dudarev formulation) in eV:
     U(Ni1-3d) =  7.6000
     U(Ni2-3d) =  7.6000

     Internal variables: lda_plus_u =T, lda_plus_u_kind = 0

     Internal variables: orbital_resolved =F, hub_pot_fix =F, apply_U = F

     celldm(1)=   9.647000  celldm(2)=   0.000000  celldm(3)=   0.000000
     celldm(4)=   0.833333  celldm(5)=   0.000000  celldm(6)=   0.000000

     crystal axes: (cart. coord. in units of alat)
               a(1) = (   0.288675  -0.166667   0.942809 )  
               a(2) = (   0.000000   0.333333   0.942809 )  
               a(3) = (  -0.288675  -0.166667   0.942809 )  

     reciprocal axes: (cart. coord. in units 2 pi/alat)
               b(1) = (  1.732051 -1.000000  0.353553 )  
               b(2) = ( -0.000000  2.000000  0.353553 )  
               b(3) = ( -1.732051 -1.000000  0.353553 )  


     PseudoPot. # 1 for Ni read from file:
     /Users/kirill/Documents/dft/volume/NiO_struct_opt_dft_U/../../pot/Ni.pbesol-n-rrkjus_psl.0.1.UPF
     MD5 check sum: 8a65ecc087b22b902f7e15bb4f925df7
     Pseudo is Ultrasoft + core correction, Zval = 10.0
     Generated using "atomic" code by A. Dal Corso  v.5.0.2 svn rev. 9415
     Using radial grid of 1195 points,  6 beta functions with: 
                l(1) =   0
                l(2) =   0
                l(3) =   1
                l(4) =   1
                l(5) =   2
                l(6) =   2
     Q(r) pseudized with 0 coefficients 


     PseudoPot. # 2 for Ni read from file:
     /Users/kirill/Documents/dft/volume/NiO_struct_opt_dft_U/../../pot/Ni.pbesol-n-rrkjus_psl.0.1.UPF
     MD5 check sum: 8a65ecc087b22b902f7e15bb4f925df7
     Pseudo is Ultrasoft + core correction, Zval = 10.0
     Generated using "atomic" code by A. Dal Corso  v.5.0.2 svn rev. 9415
     Using radial grid of 1195 points,  6 beta functions with: 
                l(1) =   0
                l(2) =   0
                l(3) =   1
                l(4) =   1
                l(5) =   2
                l(6) =   2
     Q(r) pseudized with 0 coefficients 


     PseudoPot. # 3 for O  read from file:
     /Users/kirill/Documents/dft/volume/NiO_struct_opt_dft_U/../../pot/O.pbesol-n-rrkjus_psl.1.0.0.UPF
     MD5 check sum: 69b2cf9905362d8720b1d83b4ba3171b
     Pseudo is Ultrasoft + core correction, Zval =  6.0
     Generated using &quot;atomic&quot; code by A. Dal Corso  v.6.3MaX
     Using radial grid of 1095 points,  4 beta functions with: 
                l(1) =   0
                l(2) =   0
                l(3) =   1
                l(4) =   1
     Q(r) pseudized with 0 coefficients 


     atomic species   valence    mass     pseudopotential
     Ni1              10.00    58.69340     Ni( 1.00)
     Ni2              10.00    58.69340     Ni( 1.00)
     O                 6.00    15.99900     O ( 1.00)

     Starting magnetic structure 
     atomic species   magnetization
     Ni1             0.150
     Ni2             0.150
     O               0.000

     12 Sym. Ops., with inversion, found



   Cartesian axes

     site n.     atom                  positions (alat units)
         1        Ni1    tau(   1) = (   0.0000000   0.0000000   0.0000000  )
         2        Ni2    tau(   2) = (   0.0000000   0.6666667   0.4714045  )
         3        O      tau(   3) = (   0.2886751  -0.1666667   0.2357023  )
         4        O      tau(   4) = (  -0.2886751   0.1666667  -0.2357023  )

     number of k points=    32
                       cart. coord. in units 2pi/alat
        k(    1) = (   0.0000000   0.0000000   0.0000000), wk =   0.0046296
        k(    2) = (  -0.2886751  -0.1666667   0.0589256), wk =   0.0277778
        k(    3) = (  -0.5773503  -0.3333333   0.1178511), wk =   0.0277778
        k(    4) = (   0.8660254   0.5000000  -0.1767767), wk =   0.0138889
        k(    5) = (  -0.2886751   0.1666667   0.1178511), wk =   0.0277778
        k(    6) = (  -0.5773503  -0.0000000   0.1767767), wk =   0.0555556
        k(    7) = (   0.8660254   0.8333333  -0.1178511), wk =   0.0555556
        k(    8) = (   0.5773503   0.6666667  -0.0589256), wk =   0.0555556
        k(    9) = (   0.2886751   0.5000000   0.0000000), wk =   0.0277778
        k(   10) = (  -0.5773503   0.3333333   0.2357023), wk =   0.0277778
        k(   11) = (   0.8660254   1.1666667  -0.0589256), wk =   0.0555556
        k(   12) = (   0.5773503   1.0000000   0.0000000), wk =   0.0277778
        k(   13) = (   0.8660254  -0.5000000  -0.3535534), wk =   0.0138889
        k(   14) = (  -0.0000000  -0.0000000   0.1767767), wk =   0.0092593
        k(   15) = (  -0.2886751  -0.1666667   0.2357023), wk =   0.0277778
        k(   16) = (   1.1547005   0.6666667  -0.0589256), wk =   0.0277778
        k(   17) = (   0.8660254   0.5000000   0.0000000), wk =   0.0277778
        k(   18) = (   0.5773503   0.3333333   0.0589256), wk =   0.0277778
        k(   19) = (  -0.2886751   0.1666667   0.2946278), wk =   0.0277778
        k(   20) = (   1.1547005   1.0000000   0.0000000), wk =   0.0555556
        k(   21) = (   0.8660254   0.8333333   0.0589256), wk =   0.0555556
        k(   22) = (   0.5773503   0.6666667   0.1178511), wk =   0.0555556
        k(   23) = (   1.1547005  -0.6666667  -0.2946278), wk =   0.0277778
        k(   24) = (   0.8660254  -0.8333333  -0.2357023), wk =   0.0555556
        k(   25) = (   0.5773503  -1.0000000  -0.1767767), wk =   0.0277778
        k(   26) = (   0.8660254  -0.5000000  -0.1767767), wk =   0.0277778
        k(   27) = (  -0.0000000  -0.0000000   0.3535534), wk =   0.0092593
        k(   28) = (   1.4433757   0.8333333   0.0589256), wk =   0.0277778
        k(   29) = (   1.1547005   0.6666667   0.1178511), wk =   0.0277778
        k(   30) = (   1.4433757  -0.8333333  -0.2357023), wk =   0.0277778
        k(   31) = (   1.1547005  -1.0000000  -0.1767767), wk =   0.0277778
        k(   32) = (   0.0000000   0.0000000  -0.5303301), wk =   0.0046296

     Dense  grid:    53137 G-vectors     FFT dimensions: (  75,  75,  75)

     Smooth grid:    13489 G-vectors     FFT dimensions: (  45,  45,  45)

     Estimated max dynamical RAM per process >      70.32 MB

     Estimated total dynamical RAM >     351.62 MB
     Generating pointlists ...
     new r_m :   0.1684 (alat units)  1.6246 (a.u.) for type    1
     new r_m :   0.1684 (alat units)  1.6246 (a.u.) for type    2
     new r_m :   0.1684 (alat units)  1.6246 (a.u.) for type    3

     Initial potential from superposition of free atoms

     starting charge      31.9995, renormalised to      32.0000

     STARTING HUBBARD OCCUPATIONS:

     =================== HUBBARD OCCUPATIONS ===================
     ------------------------ ATOM    1 ------------------------
     Tr[ns(  1)] (up, down, total) =   5.00000  3.00000  8.00000
     Atomic magnetic moment for atom   1 =   2.00000
     SPIN  1
     eigenvalues:
       1.000  1.000  1.000  1.000  1.000
     eigenvectors (columns):
       1.000  0.000  0.000  0.000  0.000
       0.000  1.000  0.000  0.000  0.000
       0.000  0.000  1.000  0.000  0.000
       0.000  0.000  0.000  1.000  0.000
       0.000  0.000  0.000  0.000  1.000
     occupation matrix ns (before diag.):
       1.000  0.000  0.000  0.000  0.000
       0.000  1.000  0.000  0.000  0.000
       0.000  0.000  1.000  0.000  0.000
       0.000  0.000  0.000  1.000  0.000
       0.000  0.000  0.000  0.000  1.000
     SPIN  2
     eigenvalues:
       0.600  0.600  0.600  0.600  0.600
     eigenvectors (columns):
       1.000  0.000  0.000  0.000  0.000
       0.000  1.000  0.000  0.000  0.000
       0.000  0.000  1.000  0.000  0.000
       0.000  0.000  0.000  1.000  0.000
       0.000  0.000  0.000  0.000  1.000
     occupation matrix ns (before diag.):
       0.600  0.000  0.000  0.000  0.000
       0.000  0.600  0.000  0.000  0.000
       0.000  0.000  0.600  0.000  0.000
       0.000  0.000  0.000  0.600  0.000
       0.000  0.000  0.000  0.000  0.600
     ------------------------ ATOM    2 ------------------------
     Tr[ns(  2)] (up, down, total) =   5.00000  3.00000  8.00000
     Atomic magnetic moment for atom   2 =   2.00000
     SPIN  1
     eigenvalues:
       1.000  1.000  1.000  1.000  1.000
     eigenvectors (columns):
       1.000  0.000  0.000  0.000  0.000
       0.000  1.000  0.000  0.000  0.000
       0.000  0.000  1.000  0.000  0.000
       0.000  0.000  0.000  1.000  0.000
       0.000  0.000  0.000  0.000  1.000
     occupation matrix ns (before diag.):
       1.000  0.000  0.000  0.000  0.000
       0.000  1.000  0.000  0.000  0.000
       0.000  0.000  1.000  0.000  0.000
       0.000  0.000  0.000  1.000  0.000
       0.000  0.000  0.000  0.000  1.000
     SPIN  2
     eigenvalues:
       0.600  0.600  0.600  0.600  0.600
     eigenvectors (columns):
       1.000  0.000  0.000  0.000  0.000
       0.000  1.000  0.000  0.000  0.000
       0.000  0.000  1.000  0.000  0.000
       0.000  0.000  0.000  1.000  0.000
       0.000  0.000  0.000  0.000  1.000
     occupation matrix ns (before diag.):
       0.600  0.000  0.000  0.000  0.000
       0.000  0.600  0.000  0.000  0.000
       0.000  0.000  0.600  0.000  0.000
       0.000  0.000  0.000  0.600  0.000
       0.000  0.000  0.000  0.000  0.600

     Number of occupied Hubbard levels =   16.0000

     Atomic wfc used for Hubbard projectors are orthogonalized

     Starting wfcs are   26 randomized atomic wfcs

     total cpu time spent up to now is        1.3 secs

     Self-consistent Calculation

     iteration #  1     ecut=    55.00 Ry     beta= 0.20
     Davidson diagonalization with overlap
     ethr =  1.00E-02,  avg # of iterations =  1.8

     =================== HUBBARD OCCUPATIONS ===================
     ------------------------ ATOM    1 ------------------------
     Tr[ns(  1)] (up, down, total) =   4.65135  4.27739  8.92873
     Atomic magnetic moment for atom   1 =   0.37396
     SPIN  1
     eigenvalues:
       0.839  0.839  0.991  0.991  0.991
     eigenvectors (columns):
      -0.000  0.000 -1.000  0.000  0.000
       0.718  0.397 -0.000 -0.139 -0.554
       0.397 -0.718 -0.000 -0.554  0.139
       0.276 -0.500  0.000  0.796 -0.199
       0.500  0.276  0.000  0.199  0.796
     occupation matrix ns (before diag.):
       0.991  0.000  0.000  0.000  0.000
       0.000  0.889  0.000 -0.000 -0.071
       0.000  0.000  0.889 -0.071  0.000
       0.000 -0.000 -0.071  0.941 -0.000
       0.000 -0.071  0.000 -0.000  0.941
     SPIN  2
     eigenvalues:
       0.659  0.659  0.986  0.987  0.987
     eigenvectors (columns):
       0.000 -0.000 -1.000  0.000  0.000
      -0.707 -0.406 -0.000 -0.139 -0.562
      -0.406  0.707 -0.000 -0.562  0.139
      -0.289  0.502  0.000  0.791 -0.196
      -0.502 -0.289  0.000  0.196  0.791
     occupation matrix ns (before diag.):
       0.986  0.000  0.000  0.000  0.000
       0.000  0.769  0.000 -0.000 -0.155
       0.000  0.000  0.769 -0.155  0.000
       0.000 -0.000 -0.155  0.877 -0.000
       0.000 -0.155  0.000 -0.000  0.877
     ------------------------ ATOM    2 ------------------------
     Tr[ns(  2)] (up, down, total) =   4.65140  4.28483  8.93623
     Atomic magnetic moment for atom   2 =   0.36657
     SPIN  1
     eigenvalues:
       0.839  0.839  0.991  0.991  0.991
     eigenvectors (columns):
       0.000 -0.000 -1.000  0.000  0.000
      -0.720 -0.395 -0.000 -0.139 -0.554
      -0.395  0.720 -0.000 -0.554  0.139
      -0.275  0.500  0.000  0.796 -0.200
      -0.500 -0.275  0.000  0.200  0.796
     occupation matrix ns (before diag.):
       0.991  0.000  0.000  0.000  0.000
       0.000  0.889  0.000 -0.000 -0.071
       0.000  0.000  0.889 -0.071  0.000
       0.000 -0.000 -0.071  0.942 -0.000
       0.000 -0.071  0.000 -0.000  0.942
     SPIN  2
     eigenvalues:
       0.663  0.663  0.986  0.986  0.986
     eigenvectors (columns):
       0.000 -0.000 -1.000  0.000  0.000
      -0.707 -0.407 -0.000 -0.139 -0.562
      -0.407  0.707 -0.000 -0.562  0.139
      -0.289  0.501  0.000  0.792 -0.196
      -0.501 -0.289  0.000  0.196  0.792
     occupation matrix ns (before diag.):
       0.986  0.000  0.000  0.000  0.000
       0.000  0.771  0.000 -0.000 -0.153
       0.000  0.000  0.771 -0.153  0.000
       0.000 -0.000 -0.153  0.878 -0.000
       0.000 -0.153  0.000 -0.000  0.878

     Number of occupied Hubbard levels =   17.8650

     total cpu time spent up to now is        2.6 secs

     total energy              =    -264.26652440 Ry
     estimated scf accuracy    <       0.55323658 Ry

     total magnetization       =    -0.00 Bohr mag/cell
     absolute magnetization    =     1.48 Bohr mag/cell

     iteration #  2     ecut=    55.00 Ry     beta= 0.20
     Davidson diagonalization with overlap
     ethr =  1.73E-03,  avg # of iterations =  4.2

     total cpu time spent up to now is        4.2 secs

     total energy              =    -264.39085275 Ry
     estimated scf accuracy    <       0.13963614 Ry

     total magnetization       =     0.00 Bohr mag/cell
     absolute magnetization    =     0.76 Bohr mag/cell

     iteration #  3     ecut=    55.00 Ry     beta= 0.20
     Davidson diagonalization with overlap
     ethr =  4.36E-04,  avg # of iterations =  4.7

     total cpu time spent up to now is        5.8 secs

     total energy              =    -264.42902720 Ry
     estimated scf accuracy    <       0.09991812 Ry

     total magnetization       =    -0.00 Bohr mag/cell
     absolute magnetization    =     0.67 Bohr mag/cell

     iteration #  4     ecut=    55.00 Ry     beta= 0.20
     Davidson diagonalization with overlap
     ethr =  3.12E-04,  avg # of iterations =  5.1

     total cpu time spent up to now is        7.6 secs

     total energy              =    -264.46177134 Ry
     estimated scf accuracy    <       0.05430811 Ry

     total magnetization       =     0.00 Bohr mag/cell
     absolute magnetization    =     0.40 Bohr mag/cell

     iteration #  5     ecut=    55.00 Ry     beta= 0.20
     Davidson diagonalization with overlap
     ethr =  1.70E-04,  avg # of iterations =  2.7

     total cpu time spent up to now is        9.1 secs

     total energy              =    -264.47722037 Ry
     estimated scf accuracy    <       0.06211247 Ry

     total magnetization       =     0.00 Bohr mag/cell
     absolute magnetization    =     0.35 Bohr mag/cell

     iteration #  6     ecut=    55.00 Ry     beta= 0.20
     Davidson diagonalization with overlap
     ethr =  1.70E-04,  avg # of iterations =  2.2

     total cpu time spent up to now is       10.4 secs

     total energy              =    -264.44255976 Ry
     estimated scf accuracy    <       0.10048999 Ry

     total magnetization       =     0.00 Bohr mag/cell
     absolute magnetization    =     0.39 Bohr mag/cell

     iteration #  7     ecut=    55.00 Ry     beta= 0.20
     Davidson diagonalization with overlap
     ethr =  1.70E-04,  avg # of iterations =  4.5

     total cpu time spent up to now is       12.1 secs

     total energy              =    -264.45714808 Ry
     estimated scf accuracy    <       0.01197854 Ry

     total magnetization       =    -0.00 Bohr mag/cell
     absolute magnetization    =     0.19 Bohr mag/cell

     iteration #  8     ecut=    55.00 Ry     beta= 0.20
     Davidson diagonalization with overlap
     ethr =  3.74E-05,  avg # of iterations =  6.8

     total cpu time spent up to now is       14.0 secs

     total energy              =    -264.46664622 Ry
     estimated scf accuracy    <       0.02250407 Ry

     total magnetization       =     0.00 Bohr mag/cell
     absolute magnetization    =     0.26 Bohr mag/cell

     iteration #  9     ecut=    55.00 Ry     beta= 0.20
     Davidson diagonalization with overlap
     c_bands:  1 eigenvalues not converged
     c_bands:  2 eigenvalues not converged
     ethr =  3.74E-05,  avg # of iterations =  8.8

     total cpu time spent up to now is       16.3 secs

     total energy              =    -264.47005717 Ry
     estimated scf accuracy    <       0.15720148 Ry

     total magnetization       =    -0.00 Bohr mag/cell
     absolute magnetization    =     0.17 Bohr mag/cell

     iteration # 10     ecut=    55.00 Ry     beta= 0.20
     Davidson diagonalization with overlap
     ethr =  3.74E-05,  avg # of iterations =  1.4

     total cpu time spent up to now is       17.5 secs

     total energy              =    -264.41547445 Ry
     estimated scf accuracy    <       0.14136081 Ry

     total magnetization       =    -0.00 Bohr mag/cell
     absolute magnetization    =     0.17 Bohr mag/cell

     iteration # 11     ecut=    55.00 Ry     beta= 0.20
     Davidson diagonalization with overlap
     c_bands:  1 eigenvalues not converged
     c_bands:  2 eigenvalues not converged
     c_bands:  2 eigenvalues not converged
     c_bands:  5 eigenvalues not converged
     c_bands:  2 eigenvalues not converged
     c_bands:  2 eigenvalues not converged
     c_bands:  2 eigenvalues not converged
     c_bands:  1 eigenvalues not converged
     c_bands:  2 eigenvalues not converged
     c_bands:  3 eigenvalues not converged
     c_bands:  2 eigenvalues not converged
     c_bands:  2 eigenvalues not converged
     c_bands:  2 eigenvalues not converged
     c_bands:  3 eigenvalues not converged
     c_bands:  3 eigenvalues not converged
     c_bands:  1 eigenvalues not converged
     c_bands:  2 eigenvalues not converged
     c_bands:  2 eigenvalues not converged
     c_bands:  2 eigenvalues not converged
     c_bands:  1 eigenvalues not converged
     c_bands:  1 eigenvalues not converged
     c_bands:  5 eigenvalues not converged
     c_bands:  1 eigenvalues not converged
     c_bands:  2 eigenvalues not converged
     c_bands:  2 eigenvalues not converged
     c_bands:  1 eigenvalues not converged
     ethr =  3.74E-05,  avg # of iterations = 17.9

     total cpu time spent up to now is       23.3 secs

     total energy              =    -264.61106745 Ry
     estimated scf accuracy    <       0.44720862 Ry

     total magnetization       =     0.00 Bohr mag/cell
     absolute magnetization    =     0.92 Bohr mag/cell

     iteration # 12     ecut=    55.00 Ry     beta= 0.20
     Davidson diagonalization with overlap
     c_bands:  1 eigenvalues not converged
     c_bands:  1 eigenvalues not converged
     c_bands:  1 eigenvalues not converged
     c_bands:  2 eigenvalues not converged
     c_bands:  1 eigenvalues not converged
     c_bands:  2 eigenvalues not converged
     c_bands:  1 eigenvalues not converged
     c_bands:  1 eigenvalues not converged
     ethr =  3.74E-05,  avg # of iterations = 13.0

     total cpu time spent up to now is       27.1 secs

     total energy              =    -264.34655369 Ry
     estimated scf accuracy    <       1.16823841 Ry

     total magnetization       =     0.00 Bohr mag/cell
     absolute magnetization    =     0.96 Bohr mag/cell

     iteration # 13     ecut=    55.00 Ry     beta= 0.20
     Davidson diagonalization with overlap
     c_bands:  4 eigenvalues not converged
     c_bands:  1 eigenvalues not converged
     c_bands:  2 eigenvalues not converged
     c_bands:  1 eigenvalues not converged
     c_bands:  3 eigenvalues not converged
     c_bands:  1 eigenvalues not converged
     c_bands:  1 eigenvalues not converged
     c_bands:  2 eigenvalues not converged
     c_bands:  2 eigenvalues not converged
     c_bands:  3 eigenvalues not converged
     c_bands:  1 eigenvalues not converged
     c_bands:  1 eigenvalues not converged
     c_bands:  1 eigenvalues not converged
     c_bands:  4 eigenvalues not converged
     c_bands:  1 eigenvalues not converged
     c_bands:  1 eigenvalues not converged
     c_bands:  3 eigenvalues not converged
     c_bands:  3 eigenvalues not converged
     c_bands:  2 eigenvalues not converged
     c_bands:  2 eigenvalues not converged
     c_bands:  1 eigenvalues not converged
     c_bands:  3 eigenvalues not converged
     c_bands:  3 eigenvalues not converged
     c_bands:  4 eigenvalues not converged
     c_bands:  3 eigenvalues not converged
     c_bands:  5 eigenvalues not converged
     c_bands:  1 eigenvalues not converged
     c_bands:  1 eigenvalues not converged
     ethr =  3.74E-05,  avg # of iterations = 18.3

     total cpu time spent up to now is       32.7 secs

     total energy              =    -264.45646535 Ry
     estimated scf accuracy    <       0.06227758 Ry

     total magnetization       =     0.00 Bohr mag/cell
     absolute magnetization    =     0.61 Bohr mag/cell

     iteration # 14     ecut=    55.00 Ry     beta= 0.20
     Davidson diagonalization with overlap
     c_bands:  1 eigenvalues not converged
     ethr =  3.74E-05,  avg # of iterations =  7.1

     total cpu time spent up to now is       34.5 secs

     total energy              =    -264.47040563 Ry
     estimated scf accuracy    <       0.01104766 Ry

     total magnetization       =    -0.00 Bohr mag/cell
     absolute magnetization    =     0.26 Bohr mag/cell

     iteration # 15     ecut=    55.00 Ry     beta= 0.20
     Davidson diagonalization with overlap
     c_bands:  2 eigenvalues not converged
     c_bands:  2 eigenvalues not converged
     c_bands:  2 eigenvalues not converged
     c_bands:  2 eigenvalues not converged
     c_bands:  2 eigenvalues not converged
     c_bands:  2 eigenvalues not converged
     c_bands:  2 eigenvalues not converged
     c_bands:  1 eigenvalues not converged
     c_bands:  1 eigenvalues not converged
     c_bands:  2 eigenvalues not converged
     c_bands:  1 eigenvalues not converged
     c_bands:  1 eigenvalues not converged
     c_bands:  2 eigenvalues not converged
     c_bands:  1 eigenvalues not converged
     c_bands:  1 eigenvalues not converged
     c_bands:  2 eigenvalues not converged
     c_bands:  1 eigenvalues not converged
     c_bands:  1 eigenvalues not converged
     c_bands:  1 eigenvalues not converged
     c_bands:  1 eigenvalues not converged
     c_bands:  2 eigenvalues not converged
     c_bands:  1 eigenvalues not converged
     c_bands:  2 eigenvalues not converged
     c_bands:  1 eigenvalues not converged
     ethr =  3.45E-05,  avg # of iterations = 14.5

     total cpu time spent up to now is       38.5 secs

     total energy              =    -264.46364392 Ry
     estimated scf accuracy    <       0.93109960 Ry

     total magnetization       =     0.00 Bohr mag/cell
     absolute magnetization    =     0.70 Bohr mag/cell

     iteration # 16     ecut=    55.00 Ry     beta= 0.20
     Davidson diagonalization with overlap
     c_bands:  1 eigenvalues not converged
     c_bands:  1 eigenvalues not converged
     c_bands:  1 eigenvalues not converged
     c_bands:  1 eigenvalues not converged
     ethr =  3.45E-05,  avg # of iterations =  9.0

     total cpu time spent up to now is       40.8 secs

     total energy              =    -264.41100183 Ry
     estimated scf accuracy    <       0.34096147 Ry

     total magnetization       =    -0.00 Bohr mag/cell
     absolute magnetization    =     0.24 Bohr mag/cell

     iteration # 17     ecut=    55.00 Ry     beta= 0.20
     Davidson diagonalization with overlap
     c_bands:  1 eigenvalues not converged
     c_bands:  2 eigenvalues not converged
     c_bands:  2 eigenvalues not converged
     c_bands:  1 eigenvalues not converged
     c_bands:  2 eigenvalues not converged
     c_bands:  1 eigenvalues not converged
     c_bands:  2 eigenvalues not converged
     c_bands:  1 eigenvalues not converged
     c_bands:  2 eigenvalues not converged
     c_bands:  1 eigenvalues not converged
     c_bands:  1 eigenvalues not converged
     c_bands:  2 eigenvalues not converged
     c_bands:  2 eigenvalues not converged
     c_bands:  2 eigenvalues not converged
     c_bands:  2 eigenvalues not converged
     c_bands:  2 eigenvalues not converged
     c_bands:  1 eigenvalues not converged
     c_bands:  1 eigenvalues not converged
     c_bands:  2 eigenvalues not converged
     c_bands:  2 eigenvalues not converged
     c_bands:  1 eigenvalues not converged
     c_bands:  1 eigenvalues not converged
     c_bands:  3 eigenvalues not converged
     c_bands:  1 eigenvalues not converged
     c_bands:  2 eigenvalues not converged
     c_bands:  2 eigenvalues not converged
     c_bands:  3 eigenvalues not converged
     c_bands:  1 eigenvalues not converged
     ethr =  3.45E-05,  avg # of iterations = 16.0

     total cpu time spent up to now is       45.8 secs

     total energy              =    -264.47862179 Ry
     estimated scf accuracy    <       0.07738324 Ry

     total magnetization       =     0.00 Bohr mag/cell
     absolute magnetization    =     0.61 Bohr mag/cell

     iteration # 18     ecut=    55.00 Ry     beta= 0.20
     Davidson diagonalization with overlap
     c_bands:  1 eigenvalues not converged
     c_bands:  1 eigenvalues not converged
     c_bands:  1 eigenvalues not converged
     c_bands:  1 eigenvalues not converged
     ethr =  3.45E-05,  avg # of iterations = 12.1

     total cpu time spent up to now is       47.9 secs

     total energy              =    -264.48524183 Ry
     estimated scf accuracy    <       0.63528327 Ry

     total magnetization       =     0.00 Bohr mag/cell
     absolute magnetization    =     0.55 Bohr mag/cell

     iteration # 19     ecut=    55.00 Ry     beta= 0.20
     Davidson diagonalization with overlap
     ethr =  3.45E-05,  avg # of iterations =  1.9

     total cpu time spent up to now is       49.2 secs

     total energy              =    -264.50973233 Ry
     estimated scf accuracy    <       0.62872114 Ry

     total magnetization       =    -0.00 Bohr mag/cell
     absolute magnetization    =     0.52 Bohr mag/cell

     iteration # 20     ecut=    55.00 Ry     beta= 0.20
     Davidson diagonalization with overlap
     ethr =  3.45E-05,  avg # of iterations =  3.4

     total cpu time spent up to now is       50.7 secs

     total energy              =    -264.50573346 Ry
     estimated scf accuracy    <       0.75603234 Ry

     total magnetization       =     0.00 Bohr mag/cell
     absolute magnetization    =     0.55 Bohr mag/cell

     iteration # 21     ecut=    55.00 Ry     beta= 0.20
     Davidson diagonalization with overlap
     ethr =  3.45E-05,  avg # of iterations =  1.1

     total cpu time spent up to now is       51.9 secs

     total energy              =    -264.51893892 Ry
     estimated scf accuracy    <       0.75193600 Ry

     total magnetization       =    -0.00 Bohr mag/cell
     absolute magnetization    =     0.56 Bohr mag/cell

     iteration # 22     ecut=    55.00 Ry     beta= 0.20
     Davidson diagonalization with overlap
     c_bands:  1 eigenvalues not converged
     c_bands:  1 eigenvalues not converged
     c_bands:  1 eigenvalues not converged
     ethr =  3.45E-05,  avg # of iterations =  5.4

     total cpu time spent up to now is       53.5 secs

     total energy              =    -264.53079304 Ry
     estimated scf accuracy    <       1.14329840 Ry

     total magnetization       =     0.00 Bohr mag/cell
     absolute magnetization    =     0.26 Bohr mag/cell

     iteration # 23     ecut=    55.00 Ry     beta= 0.20
     Davidson diagonalization with overlap
     ethr =  3.45E-05,  avg # of iterations =  2.0

     total cpu time spent up to now is       54.8 secs

     total energy              =    -264.50605582 Ry
     estimated scf accuracy    <       1.20476257 Ry

     total magnetization       =     0.00 Bohr mag/cell
     absolute magnetization    =     0.25 Bohr mag/cell

     iteration # 24     ecut=    55.00 Ry     beta= 0.20
     Davidson diagonalization with overlap
     ethr =  3.45E-05,  avg # of iterations =  1.6

     total cpu time spent up to now is       56.1 secs

     total energy              =    -264.49944092 Ry
     estimated scf accuracy    <       1.13260278 Ry

     total magnetization       =     0.00 Bohr mag/cell
     absolute magnetization    =     0.26 Bohr mag/cell

     iteration # 25     ecut=    55.00 Ry     beta= 0.20
     Davidson diagonalization with overlap
     ethr =  3.45E-05,  avg # of iterations =  2.3

     total cpu time spent up to now is       57.4 secs

     total energy              =    -264.46873251 Ry
     estimated scf accuracy    <       1.11244640 Ry

     total magnetization       =     0.00 Bohr mag/cell
     absolute magnetization    =     0.25 Bohr mag/cell

     iteration # 26     ecut=    55.00 Ry     beta= 0.20
     Davidson diagonalization with overlap
     ethr =  3.45E-05,  avg # of iterations =  8.5

     total cpu time spent up to now is       59.3 secs

     total energy              =    -264.47487350 Ry
     estimated scf accuracy    <       0.56748351 Ry

     total magnetization       =    -0.00 Bohr mag/cell
     absolute magnetization    =     0.19 Bohr mag/cell

     iteration # 27     ecut=    55.00 Ry     beta= 0.20
     Davidson diagonalization with overlap
     c_bands:  1 eigenvalues not converged
     c_bands:  2 eigenvalues not converged
     c_bands:  2 eigenvalues not converged
     c_bands:  1 eigenvalues not converged
     c_bands:  1 eigenvalues not converged
     c_bands:  1 eigenvalues not converged
     c_bands:  2 eigenvalues not converged
     c_bands:  1 eigenvalues not converged
     c_bands:  1 eigenvalues not converged
     c_bands:  1 eigenvalues not converged
     c_bands:  2 eigenvalues not converged
     c_bands:  2 eigenvalues not converged
     c_bands:  2 eigenvalues not converged
     c_bands:  1 eigenvalues not converged
     c_bands:  1 eigenvalues not converged
     c_bands:  1 eigenvalues not converged
     c_bands:  2 eigenvalues not converged
     c_bands:  1 eigenvalues not converged
     c_bands:  1 eigenvalues not converged
     c_bands:  1 eigenvalues not converged
     c_bands:  2 eigenvalues not converged
     c_bands:  2 eigenvalues not converged
     c_bands:  1 eigenvalues not converged
     ethr =  3.45E-05,  avg # of iterations = 15.3

     total cpu time spent up to now is       63.0 secs

     total energy              =    -264.48140946 Ry
     estimated scf accuracy    <       0.26930152 Ry

     total magnetization       =    -0.00 Bohr mag/cell
     absolute magnetization    =     0.99 Bohr mag/cell

     iteration # 28     ecut=    55.00 Ry     beta= 0.20
     Davidson diagonalization with overlap
     c_bands:  1 eigenvalues not converged
     c_bands:  1 eigenvalues not converged
     c_bands:  1 eigenvalues not converged
     c_bands:  2 eigenvalues not converged
     c_bands:  1 eigenvalues not converged
     c_bands:  1 eigenvalues not converged
     c_bands:  1 eigenvalues not converged
     c_bands:  1 eigenvalues not converged
     c_bands:  2 eigenvalues not converged
     c_bands:  1 eigenvalues not converged
     c_bands:  1 eigenvalues not converged
     c_bands:  1 eigenvalues not converged
     ethr =  3.45E-05,  avg # of iterations = 10.5

     total cpu time spent up to now is       65.5 secs

     total energy              =    -264.48729541 Ry
     estimated scf accuracy    <       0.18272304 Ry

     total magnetization       =     0.00 Bohr mag/cell
     absolute magnetization    =     1.79 Bohr mag/cell

     iteration # 29     ecut=    55.00 Ry     beta= 0.20
     Davidson diagonalization with overlap
     c_bands:  1 eigenvalues not converged
     ethr =  3.45E-05,  avg # of iterations =  7.2

     total cpu time spent up to now is       67.7 secs

     total energy              =    -264.49556937 Ry
     estimated scf accuracy    <       0.14907347 Ry

     total magnetization       =    -0.00 Bohr mag/cell
     absolute magnetization    =     1.76 Bohr mag/cell

     iteration # 30     ecut=    55.00 Ry     beta= 0.20
     Davidson diagonalization with overlap
     ethr =  3.45E-05,  avg # of iterations =  6.2

     total cpu time spent up to now is       69.5 secs

     total energy              =    -264.52117612 Ry
     estimated scf accuracy    <       0.22137808 Ry

     total magnetization       =    -0.00 Bohr mag/cell
     absolute magnetization    =     1.64 Bohr mag/cell

     iteration # 31     ecut=    55.00 Ry     beta= 0.20
     Davidson diagonalization with overlap
     ethr =  3.45E-05,  avg # of iterations =  6.0

     total cpu time spent up to now is       71.1 secs

     total energy              =    -264.49924428 Ry
     estimated scf accuracy    <       0.37883497 Ry

     total magnetization       =    -0.00 Bohr mag/cell
     absolute magnetization    =     1.88 Bohr mag/cell

     iteration # 32     ecut=    55.00 Ry     beta= 0.20
     Davidson diagonalization with overlap
     ethr =  3.45E-05,  avg # of iterations =  5.1

     total cpu time spent up to now is       72.7 secs

     total energy              =    -264.49414495 Ry
     estimated scf accuracy    <       0.24010174 Ry

     total magnetization       =     0.00 Bohr mag/cell
     absolute magnetization    =     1.74 Bohr mag/cell

     iteration # 33     ecut=    55.00 Ry     beta= 0.20
     Davidson diagonalization with overlap
     ethr =  3.45E-05,  avg # of iterations =  5.5

     total cpu time spent up to now is       74.3 secs

     total energy              =    -264.41799398 Ry
     estimated scf accuracy    <       0.47768277 Ry

     total magnetization       =     0.00 Bohr mag/cell
     absolute magnetization    =     1.37 Bohr mag/cell

     iteration # 34     ecut=    55.00 Ry     beta= 0.20
     Davidson diagonalization with overlap
     c_bands:  1 eigenvalues not converged
     c_bands:  2 eigenvalues not converged
     c_bands:  2 eigenvalues not converged
     c_bands:  2 eigenvalues not converged
     c_bands:  2 eigenvalues not converged
     c_bands:  2 eigenvalues not converged
     c_bands:  1 eigenvalues not converged
     c_bands:  1 eigenvalues not converged
     c_bands:  2 eigenvalues not converged
     c_bands:  2 eigenvalues not converged
     c_bands:  1 eigenvalues not converged
     c_bands:  2 eigenvalues not converged
     c_bands:  1 eigenvalues not converged
     c_bands:  1 eigenvalues not converged
     c_bands:  2 eigenvalues not converged
     c_bands:  2 eigenvalues not converged
     ethr =  3.45E-05,  avg # of iterations = 10.8

     total cpu time spent up to now is       76.7 secs

     total energy              =    -264.46431878 Ry
     estimated scf accuracy    <       0.04585072 Ry

     total magnetization       =     0.00 Bohr mag/cell
     absolute magnetization    =     0.11 Bohr mag/cell

     iteration # 35     ecut=    55.00 Ry     beta= 0.20
     Davidson diagonalization with overlap
     ethr =  3.45E-05,  avg # of iterations =  5.2

     total cpu time spent up to now is       78.3 secs

     total energy              =    -264.46538349 Ry
     estimated scf accuracy    <       0.11725757 Ry

     total magnetization       =     0.00 Bohr mag/cell
     absolute magnetization    =     0.32 Bohr mag/cell

     iteration # 36     ecut=    55.00 Ry     beta= 0.20
     Davidson diagonalization with overlap
     ethr =  3.45E-05,  avg # of iterations =  1.2

     total cpu time spent up to now is       79.5 secs

     total energy              =    -264.46597961 Ry
     estimated scf accuracy    <       0.12309435 Ry

     total magnetization       =    -0.00 Bohr mag/cell
     absolute magnetization    =     0.31 Bohr mag/cell

     iteration # 37     ecut=    55.00 Ry     beta= 0.20
     Davidson diagonalization with overlap
     ethr =  3.45E-05,  avg # of iterations =  1.3

     total cpu time spent up to now is       80.7 secs

     total energy              =    -264.46393889 Ry
     estimated scf accuracy    <       0.13434059 Ry

     total magnetization       =    -0.00 Bohr mag/cell
     absolute magnetization    =     0.29 Bohr mag/cell

     iteration # 38     ecut=    55.00 Ry     beta= 0.20
     Davidson diagonalization with overlap
     ethr =  3.45E-05,  avg # of iterations =  1.5

     total cpu time spent up to now is       82.0 secs

     total energy              =    -264.46903091 Ry
     estimated scf accuracy    <       0.13181498 Ry

     total magnetization       =    -0.00 Bohr mag/cell
     absolute magnetization    =     0.27 Bohr mag/cell

     iteration # 39     ecut=    55.00 Ry     beta= 0.20
     Davidson diagonalization with overlap
     ethr =  3.45E-05,  avg # of iterations =  1.8

     total cpu time spent up to now is       83.3 secs

     total energy              =    -264.46962084 Ry
     estimated scf accuracy    <       0.14786973 Ry

     total magnetization       =     0.00 Bohr mag/cell
     absolute magnetization    =     0.31 Bohr mag/cell

     iteration # 40     ecut=    55.00 Ry     beta= 0.20
     Davidson diagonalization with overlap
     ethr =  3.45E-05,  avg # of iterations =  2.0

     total cpu time spent up to now is       84.6 secs

     total energy              =    -264.46447309 Ry
     estimated scf accuracy    <       0.15766835 Ry

     total magnetization       =    -0.00 Bohr mag/cell
     absolute magnetization    =     0.37 Bohr mag/cell

     iteration # 41     ecut=    55.00 Ry     beta= 0.20
     Davidson diagonalization with overlap
     ethr =  3.45E-05,  avg # of iterations =  2.1

     total cpu time spent up to now is       85.9 secs

     total energy              =    -264.46641504 Ry
     estimated scf accuracy    <       0.18641005 Ry

     total magnetization       =    -0.00 Bohr mag/cell
     absolute magnetization    =     0.31 Bohr mag/cell

     iteration # 42     ecut=    55.00 Ry     beta= 0.20
     Davidson diagonalization with overlap
     c_bands:  2 eigenvalues not converged
     c_bands:  1 eigenvalues not converged
     c_bands:  1 eigenvalues not converged
     ethr =  3.45E-05,  avg # of iterations = 12.2

     total cpu time spent up to now is       88.0 secs

     total energy              =    -264.48676863 Ry
     estimated scf accuracy    <       0.09393349 Ry

     total magnetization       =    -0.00 Bohr mag/cell
     absolute magnetization    =     1.30 Bohr mag/cell

     iteration # 43     ecut=    55.00 Ry     beta= 0.20
     Davidson diagonalization with overlap
     ethr =  3.45E-05,  avg # of iterations =  1.9

     total cpu time spent up to now is       89.3 secs

     total energy              =    -264.50325239 Ry
     estimated scf accuracy    <       0.09067754 Ry

     total magnetization       =     0.00 Bohr mag/cell
     absolute magnetization    =     1.34 Bohr mag/cell

     iteration # 44     ecut=    55.00 Ry     beta= 0.20
     Davidson diagonalization with overlap
     c_bands:  1 eigenvalues not converged
     c_bands:  1 eigenvalues not converged
     c_bands:  4 eigenvalues not converged
     c_bands:  1 eigenvalues not converged
     c_bands:  1 eigenvalues not converged
     c_bands:  1 eigenvalues not converged
     c_bands:  1 eigenvalues not converged
     c_bands:  1 eigenvalues not converged
     c_bands:  2 eigenvalues not converged
     c_bands:  1 eigenvalues not converged
     c_bands:  1 eigenvalues not converged
     c_bands:  2 eigenvalues not converged
     c_bands:  4 eigenvalues not converged
     c_bands:  2 eigenvalues not converged
     c_bands:  3 eigenvalues not converged
     c_bands:  1 eigenvalues not converged
     c_bands:  2 eigenvalues not converged
     c_bands:  1 eigenvalues not converged
     c_bands:  1 eigenvalues not converged
     c_bands:  1 eigenvalues not converged
     ethr =  3.45E-05,  avg # of iterations = 18.4

     total cpu time spent up to now is       94.2 secs

     total energy              =    -264.67715261 Ry
     estimated scf accuracy    <       0.11685761 Ry

     total magnetization       =     0.00 Bohr mag/cell
     absolute magnetization    =     3.27 Bohr mag/cell

     iteration # 45     ecut=    55.00 Ry     beta= 0.20
     Davidson diagonalization with overlap
     ethr =  3.45E-05,  avg # of iterations =  2.3

     total cpu time spent up to now is       95.5 secs

     total energy              =    -264.69001874 Ry
     estimated scf accuracy    <       0.16056029 Ry

     total magnetization       =     0.00 Bohr mag/cell
     absolute magnetization    =     3.25 Bohr mag/cell

     iteration # 46     ecut=    55.00 Ry     beta= 0.20
     Davidson diagonalization with overlap
     ethr =  3.45E-05,  avg # of iterations =  1.4

     total cpu time spent up to now is       96.8 secs

     total energy              =    -264.56316559 Ry
     estimated scf accuracy    <       0.13498043 Ry

     total magnetization       =     0.00 Bohr mag/cell
     absolute magnetization    =     3.25 Bohr mag/cell

     iteration # 47     ecut=    55.00 Ry     beta= 0.20
     Davidson diagonalization with overlap
     ethr =  3.45E-05,  avg # of iterations = 10.0

     total cpu time spent up to now is       99.2 secs

     total energy              =    -264.62658028 Ry
     estimated scf accuracy    <       0.21699362 Ry

     total magnetization       =    -0.00 Bohr mag/cell
     absolute magnetization    =     2.83 Bohr mag/cell

     iteration # 48     ecut=    55.00 Ry     beta= 0.20
     Davidson diagonalization with overlap
     ethr =  3.45E-05,  avg # of iterations =  5.9

     total cpu time spent up to now is      101.1 secs

     total energy              =    -264.73449379 Ry
     estimated scf accuracy    <       0.14514514 Ry

     total magnetization       =    -0.00 Bohr mag/cell
     absolute magnetization    =     2.95 Bohr mag/cell

     iteration # 49     ecut=    55.00 Ry     beta= 0.20
     Davidson diagonalization with overlap
     ethr =  3.45E-05,  avg # of iterations = 12.6

     total cpu time spent up to now is      104.6 secs

     total energy              =    -264.79691446 Ry
     estimated scf accuracy    <       0.01963705 Ry

     total magnetization       =     0.00 Bohr mag/cell
     absolute magnetization    =     3.52 Bohr mag/cell

     iteration # 50     ecut=    55.00 Ry     beta= 0.20
     Davidson diagonalization with overlap
     ethr =  3.45E-05,  avg # of iterations =  5.7

     negative rho (up, down):  2.068E-04 3.902E-05

     total cpu time spent up to now is      106.6 secs

     total energy              =    -264.77377929 Ry
     estimated scf accuracy    <       0.01164095 Ry

     total magnetization       =     0.00 Bohr mag/cell
     absolute magnetization    =     3.60 Bohr mag/cell

     iteration # 51     ecut=    55.00 Ry     beta= 0.20
     Davidson diagonalization with overlap
     ethr =  3.45E-05,  avg # of iterations =  6.9

     total cpu time spent up to now is      108.6 secs

     total energy              =    -264.78950846 Ry
     estimated scf accuracy    <       0.04262165 Ry

     total magnetization       =     0.00 Bohr mag/cell
     absolute magnetization    =     3.73 Bohr mag/cell

     iteration # 52     ecut=    55.00 Ry     beta= 0.20
     Davidson diagonalization with overlap
     ethr =  3.45E-05,  avg # of iterations =  1.1

     total cpu time spent up to now is      109.9 secs

     total energy              =    -264.78619222 Ry
     estimated scf accuracy    <       0.03398738 Ry

     total magnetization       =    -0.00 Bohr mag/cell
     absolute magnetization    =     3.73 Bohr mag/cell

     iteration # 53     ecut=    55.00 Ry     beta= 0.20
     Davidson diagonalization with overlap
     ethr =  3.45E-05,  avg # of iterations =  6.2

     total cpu time spent up to now is      111.9 secs

     total energy              =    -264.79844697 Ry
     estimated scf accuracy    <       0.01508480 Ry

     total magnetization       =     0.00 Bohr mag/cell
     absolute magnetization    =     3.59 Bohr mag/cell

     iteration # 54     ecut=    55.00 Ry     beta= 0.20
     Davidson diagonalization with overlap
     ethr =  3.45E-05,  avg # of iterations =  1.1

     total cpu time spent up to now is      113.2 secs

     total energy              =    -264.80121490 Ry
     estimated scf accuracy    <       0.00659777 Ry

     total magnetization       =     0.00 Bohr mag/cell
     absolute magnetization    =     3.59 Bohr mag/cell

     iteration # 55     ecut=    55.00 Ry     beta= 0.20
     Davidson diagonalization with overlap
     ethr =  2.06E-05,  avg # of iterations =  1.9

     total cpu time spent up to now is      114.6 secs

     total energy              =    -264.80161845 Ry
     estimated scf accuracy    <       0.00111723 Ry

     total magnetization       =     0.00 Bohr mag/cell
     absolute magnetization    =     3.60 Bohr mag/cell

     iteration # 56     ecut=    55.00 Ry     beta= 0.20
     Davidson diagonalization with overlap
     ethr =  3.49E-06,  avg # of iterations =  6.4

     total cpu time spent up to now is      116.7 secs

     total energy              =    -264.80226274 Ry
     estimated scf accuracy    <       0.00010582 Ry

     total magnetization       =    -0.00 Bohr mag/cell
     absolute magnetization    =     3.63 Bohr mag/cell

     iteration # 57     ecut=    55.00 Ry     beta= 0.20
     Davidson diagonalization with overlap
     ethr =  3.31E-07,  avg # of iterations =  7.2

     total cpu time spent up to now is      119.0 secs

     total energy              =    -264.80228937 Ry
     estimated scf accuracy    <       0.00011363 Ry

     total magnetization       =     0.00 Bohr mag/cell
     absolute magnetization    =     3.63 Bohr mag/cell

     iteration # 58     ecut=    55.00 Ry     beta= 0.20
     Davidson diagonalization with overlap
     ethr =  3.31E-07,  avg # of iterations =  3.8

     total cpu time spent up to now is      120.8 secs

     total energy              =    -264.80241072 Ry
     estimated scf accuracy    <       0.00017283 Ry

     total magnetization       =    -0.00 Bohr mag/cell
     absolute magnetization    =     3.62 Bohr mag/cell

     iteration # 59     ecut=    55.00 Ry     beta= 0.20
     Davidson diagonalization with overlap
     ethr =  3.31E-07,  avg # of iterations =  1.8

     total cpu time spent up to now is      122.1 secs

     total energy              =    -264.80244183 Ry
     estimated scf accuracy    <       0.00006173 Ry

     total magnetization       =     0.00 Bohr mag/cell
     absolute magnetization    =     3.62 Bohr mag/cell

     iteration # 60     ecut=    55.00 Ry     beta= 0.20
     Davidson diagonalization with overlap
     ethr =  1.93E-07,  avg # of iterations =  2.1

     total cpu time spent up to now is      123.6 secs

     total energy              =    -264.80245107 Ry
     estimated scf accuracy    <       0.00002293 Ry

     total magnetization       =    -0.00 Bohr mag/cell
     absolute magnetization    =     3.62 Bohr mag/cell

     iteration # 61     ecut=    55.00 Ry     beta= 0.20
     Davidson diagonalization with overlap
     ethr =  7.17E-08,  avg # of iterations =  3.9

     total cpu time spent up to now is      125.3 secs

     total energy              =    -264.80245323 Ry
     estimated scf accuracy    <       0.00001994 Ry

     total magnetization       =    -0.00 Bohr mag/cell
     absolute magnetization    =     3.62 Bohr mag/cell

     iteration # 62     ecut=    55.00 Ry     beta= 0.20
     Davidson diagonalization with overlap
     ethr =  6.23E-08,  avg # of iterations =  2.1

     total cpu time spent up to now is      126.7 secs

     total energy              =    -264.80245278 Ry
     estimated scf accuracy    <       0.00002329 Ry

     total magnetization       =    -0.00 Bohr mag/cell
     absolute magnetization    =     3.62 Bohr mag/cell

     iteration # 63     ecut=    55.00 Ry     beta= 0.20
     Davidson diagonalization with overlap
     ethr =  6.23E-08,  avg # of iterations =  1.7

     total cpu time spent up to now is      128.0 secs

     total energy              =    -264.80245628 Ry
     estimated scf accuracy    <       0.00001415 Ry

     total magnetization       =    -0.00 Bohr mag/cell
     absolute magnetization    =     3.62 Bohr mag/cell

     iteration # 64     ecut=    55.00 Ry     beta= 0.20
     Davidson diagonalization with overlap
     ethr =  4.42E-08,  avg # of iterations =  1.2

     total cpu time spent up to now is      129.3 secs

     total energy              =    -264.80245443 Ry
     estimated scf accuracy    <       0.00001700 Ry

     total magnetization       =    -0.00 Bohr mag/cell
     absolute magnetization    =     3.62 Bohr mag/cell

     iteration # 65     ecut=    55.00 Ry     beta= 0.20
     Davidson diagonalization with overlap
     ethr =  4.42E-08,  avg # of iterations =  1.8

     total cpu time spent up to now is      130.6 secs

     total energy              =    -264.80245263 Ry
     estimated scf accuracy    <       0.00001353 Ry

     total magnetization       =    -0.00 Bohr mag/cell
     absolute magnetization    =     3.62 Bohr mag/cell

     iteration # 66     ecut=    55.00 Ry     beta= 0.20
     Davidson diagonalization with overlap
     ethr =  4.23E-08,  avg # of iterations =  4.0

     total cpu time spent up to now is      132.2 secs

     total energy              =    -264.80245771 Ry
     estimated scf accuracy    <       0.00000400 Ry

     total magnetization       =    -0.00 Bohr mag/cell
     absolute magnetization    =     3.62 Bohr mag/cell

     iteration # 67     ecut=    55.00 Ry     beta= 0.20
     Davidson diagonalization with overlap
     ethr =  1.25E-08,  avg # of iterations =  8.5

     total cpu time spent up to now is      135.0 secs

     total energy              =    -264.80245160 Ry
     estimated scf accuracy    <       0.00002455 Ry

     total magnetization       =    -0.00 Bohr mag/cell
     absolute magnetization    =     3.62 Bohr mag/cell

     iteration # 68     ecut=    55.00 Ry     beta= 0.20
     Davidson diagonalization with overlap
     ethr =  1.25E-08,  avg # of iterations =  9.0

     total cpu time spent up to now is      138.3 secs

     total energy              =    -264.80245827 Ry
     estimated scf accuracy    <       0.00001008 Ry

     total magnetization       =     0.00 Bohr mag/cell
     absolute magnetization    =     3.62 Bohr mag/cell

     iteration # 69     ecut=    55.00 Ry     beta= 0.20
     Davidson diagonalization with overlap
     ethr =  1.25E-08,  avg # of iterations =  4.2

     total cpu time spent up to now is      140.1 secs

     total energy              =    -264.80246028 Ry
     estimated scf accuracy    <       0.00000269 Ry

     total magnetization       =     0.00 Bohr mag/cell
     absolute magnetization    =     3.62 Bohr mag/cell

     iteration # 70     ecut=    55.00 Ry     beta= 0.20
     Davidson diagonalization with overlap
     ethr =  8.40E-09,  avg # of iterations =  3.2

     total cpu time spent up to now is      141.6 secs

     total energy              =    -264.80246089 Ry
     estimated scf accuracy    <       0.00000133 Ry

     total magnetization       =     0.00 Bohr mag/cell
     absolute magnetization    =     3.62 Bohr mag/cell

     iteration # 71     ecut=    55.00 Ry     beta= 0.20
     Davidson diagonalization with overlap
     ethr =  4.16E-09,  avg # of iterations =  4.8

     total cpu time spent up to now is      143.5 secs

     total energy              =    -264.80246179 Ry
     estimated scf accuracy    <       0.00000079 Ry

     total magnetization       =    -0.00 Bohr mag/cell
     absolute magnetization    =     3.62 Bohr mag/cell

     iteration # 72     ecut=    55.00 Ry     beta= 0.20
     Davidson diagonalization with overlap
     ethr =  2.46E-09,  avg # of iterations =  6.1

     total cpu time spent up to now is      145.7 secs

     total energy              =    -264.80246211 Ry
     estimated scf accuracy    <       0.00000200 Ry

     total magnetization       =     0.00 Bohr mag/cell
     absolute magnetization    =     3.62 Bohr mag/cell

     iteration # 73     ecut=    55.00 Ry     beta= 0.20
     Davidson diagonalization with overlap
     ethr =  2.46E-09,  avg # of iterations =  6.7

     total cpu time spent up to now is      147.9 secs

     total energy              =    -264.80246274 Ry
     estimated scf accuracy    <       0.00000143 Ry

     total magnetization       =     0.00 Bohr mag/cell
     absolute magnetization    =     3.62 Bohr mag/cell

     iteration # 74     ecut=    55.00 Ry     beta= 0.20
     Davidson diagonalization with overlap
     ethr =  2.46E-09,  avg # of iterations =  6.7

     total cpu time spent up to now is      150.4 secs

     total energy              =    -264.80246331 Ry
     estimated scf accuracy    <       0.00000060 Ry

     total magnetization       =     0.00 Bohr mag/cell
     absolute magnetization    =     3.62 Bohr mag/cell

     iteration # 75     ecut=    55.00 Ry     beta= 0.20
     Davidson diagonalization with overlap
     ethr =  1.87E-09,  avg # of iterations =  3.8

     total cpu time spent up to now is      151.9 secs

     total energy              =    -264.80246342 Ry
     estimated scf accuracy    <       0.00000017 Ry

     total magnetization       =    -0.00 Bohr mag/cell
     absolute magnetization    =     3.62 Bohr mag/cell

     iteration # 76     ecut=    55.00 Ry     beta= 0.20
     Davidson diagonalization with overlap
     ethr =  5.23E-10,  avg # of iterations =  3.8

     total cpu time spent up to now is      153.5 secs

     total energy              =    -264.80246340 Ry
     estimated scf accuracy    <       0.00000004 Ry

     total magnetization       =    -0.00 Bohr mag/cell
     absolute magnetization    =     3.62 Bohr mag/cell

     iteration # 77     ecut=    55.00 Ry     beta= 0.20
     Davidson diagonalization with overlap
     ethr =  1.36E-10,  avg # of iterations =  8.4

     total cpu time spent up to now is      156.3 secs

     total energy              =    -264.80246350 Ry
     estimated scf accuracy    <       0.00000001 Ry

     total magnetization       =     0.00 Bohr mag/cell
     absolute magnetization    =     3.62 Bohr mag/cell

     iteration # 78     ecut=    55.00 Ry     beta= 0.20
     Davidson diagonalization with overlap
     ethr =  4.67E-11,  avg # of iterations =  2.7

     total cpu time spent up to now is      157.8 secs

     total energy              =    -264.80246351 Ry
     estimated scf accuracy    <          6.0E-09 Ry

     total magnetization       =    -0.00 Bohr mag/cell
     absolute magnetization    =     3.62 Bohr mag/cell

     iteration # 79     ecut=    55.00 Ry     beta= 0.20
     Davidson diagonalization with overlap
     ethr =  1.87E-11,  avg # of iterations =  7.0

     total cpu time spent up to now is      160.1 secs

     total energy              =    -264.80246352 Ry
     estimated scf accuracy    <          3.0E-09 Ry

     total magnetization       =     0.00 Bohr mag/cell
     absolute magnetization    =     3.62 Bohr mag/cell

     iteration # 80     ecut=    55.00 Ry     beta= 0.20
     Davidson diagonalization with overlap
     ethr =  9.33E-12,  avg # of iterations =  6.2

     total cpu time spent up to now is      162.2 secs

     total energy              =    -264.80246352 Ry
     estimated scf accuracy    <          2.2E-09 Ry

     total magnetization       =    -0.00 Bohr mag/cell
     absolute magnetization    =     3.62 Bohr mag/cell

     iteration # 81     ecut=    55.00 Ry     beta= 0.20
     Davidson diagonalization with overlap
     ethr =  6.82E-12,  avg # of iterations =  2.4

     Magnetic moment per site  (integrated on atomic sphere of radius R)
     atom   1 (R=0.168)  charge=  7.6603  magn= -1.6843
     atom   2 (R=0.168)  charge=  7.6603  magn=  1.6843
     atom   3 (R=0.168)  charge=  5.7082  magn=  0.0000
     atom   4 (R=0.168)  charge=  5.7082  magn=  0.0000

     total cpu time spent up to now is      163.6 secs

     End of self-consistent calculation

     =================== HUBBARD OCCUPATIONS ===================
     ------------------------ ATOM    1 ------------------------
     Tr[ns(  1)] (up, down, total) =   3.26496  4.97983  8.24479
     Atomic magnetic moment for atom   1 =  -1.71488
     SPIN  1
     eigenvalues:
       0.141  0.141  0.994  0.994  0.994
     eigenvectors (columns):
      -0.000 -0.000 -0.000 -0.000  1.000
       0.714 -0.397 -0.138 -0.561 -0.000
       0.397  0.714 -0.561  0.138 -0.000
       0.280  0.505  0.793 -0.195  0.000
       0.505 -0.280  0.195  0.793  0.000
     occupation matrix ns (before diag.):
       0.994 -0.000 -0.000  0.000  0.000
      -0.000  0.425 -0.000  0.000 -0.402
      -0.000 -0.000  0.425 -0.402  0.000
       0.000  0.000 -0.402  0.710 -0.000
       0.000 -0.402  0.000 -0.000  0.710
     SPIN  2
     eigenvalues:
       0.994  0.994  0.997  0.997  0.997
     eigenvectors (columns):
       0.000  0.000  0.000 -0.000 -1.000
      -0.699  0.416  0.136 -0.566  0.000
      -0.416 -0.699  0.566  0.136  0.000
      -0.298 -0.500 -0.791 -0.190 -0.000
      -0.500  0.298 -0.190  0.791 -0.000
     occupation matrix ns (before diag.):
       0.997  0.000  0.000  0.000  0.000
       0.000  0.995  0.000 -0.000 -0.001
       0.000  0.000  0.995 -0.001 -0.000
       0.000 -0.000 -0.001  0.996 -0.000
       0.000 -0.001 -0.000 -0.000  0.996
     ------------------------ ATOM    2 ------------------------
     Tr[ns(  2)] (up, down, total) =   4.97983  3.26495  8.24479
     Atomic magnetic moment for atom   2 =   1.71488
     SPIN  1
     eigenvalues:
       0.994  0.994  0.997  0.997  0.997
     eigenvectors (columns):
       0.000  0.000  0.000 -0.000 -1.000
      -0.699  0.416  0.136 -0.566  0.000
      -0.416 -0.699  0.566  0.136  0.000
      -0.298 -0.500 -0.791 -0.190 -0.000
      -0.500  0.298 -0.190  0.791 -0.000
     occupation matrix ns (before diag.):
       0.997  0.000  0.000  0.000  0.000
       0.000  0.995  0.000 -0.000 -0.001
       0.000  0.000  0.995 -0.001 -0.000
       0.000 -0.000 -0.001  0.996 -0.000
       0.000 -0.001 -0.000 -0.000  0.996
     SPIN  2
     eigenvalues:
       0.141  0.141  0.994  0.994  0.994
     eigenvectors (columns):
      -0.000 -0.000 -0.000 -0.000  1.000
       0.712 -0.399 -0.138 -0.561 -0.000
       0.399  0.712 -0.561  0.138 -0.000
       0.282  0.504  0.793 -0.195  0.000
       0.504 -0.282  0.195  0.793  0.000
     occupation matrix ns (before diag.):
       0.994 -0.000 -0.000  0.000  0.000
      -0.000  0.425 -0.000  0.000 -0.402
      -0.000 -0.000  0.425 -0.402  0.000
       0.000  0.000 -0.402  0.710 -0.000
       0.000 -0.402  0.000 -0.000  0.710

     Number of occupied Hubbard levels =   16.4896

 ------ SPIN UP ------------


          k = 0.0000 0.0000 0.0000 (  1701 PWs)   bands (ev):

    -8.1543  -6.6303   2.5438   3.6262   3.6262   4.8970   4.8970   5.2176
     6.2506   6.2506   7.7707   9.3358   9.3358   9.3396   9.4489   9.4489

          k =-0.2887-0.1667 0.0589 (  1696 PWs)   bands (ev):

    -7.8557  -6.6068   2.9794   3.6777   3.7255   4.6601   4.9008   5.2766
     5.8943   6.3626   7.6830   7.8756   8.8367   8.8934   9.6957   9.7213

          k =-0.5774-0.3333 0.1179 (  1683 PWs)   bands (ev):

    -7.1884  -6.5465   3.3360   3.7973   3.8727   4.3708   4.9533   5.1460
     5.4028   6.5022   7.0978   7.7164   8.0917   8.3448   9.2748   9.7452

          k = 0.8660 0.5000-0.1768 (  1684 PWs)   bands (ev):

    -6.7994  -6.5198   3.3689   3.6538   3.7770   3.9846   5.1207   5.3823
     5.4395   6.4302   7.0472   7.5806   8.0058   8.2420   9.0147   9.6466

          k =-0.2887 0.1667 0.1179 (  1696 PWs)   bands (ev):

    -7.8264  -6.6475   3.0860   3.6474   3.7311   4.6006   4.9078   5.3218
     5.8423   6.3739   7.6247   8.1646   8.4324   8.5642   9.8782  10.0491

          k =-0.5774-0.0000 0.1768 (  1688 PWs)   bands (ev):

    -7.3238  -6.6133   3.3892   3.7317   4.0151   4.3887   4.6637   5.3170
     5.6025   6.3230   7.3793   7.5290   8.1576   8.5606   9.4100   9.7155

          k = 0.8660 0.8333-0.1179 (  1685 PWs)   bands (ev):

    -6.8009  -6.5233   3.3848   3.6482   3.8022   4.4730   4.7141   5.0394
     5.9168   6.1233   7.2059   7.6590   7.8412   8.5828   8.8242   9.2883

          k = 0.5774 0.6667-0.0589 (  1682 PWs)   bands (ev):

    -6.7993  -6.5308   3.2623   3.8305   3.9248   4.5457   4.6367   4.9045
     5.8711   6.2068   7.2489   7.5816   7.8349   8.2685   8.9518   9.4042

          k = 0.2887 0.5000 0.0000 (  1687 PWs)   bands (ev):

    -7.3747  -6.5569   3.4594   3.7777   3.8484   4.4231   4.7444   5.3372
     5.4864   6.3797   7.4346   7.6180   7.7740   8.8901   9.2029   9.7897

          k =-0.5774 0.3333 0.2357 (  1684 PWs)   bands (ev):

    -7.0747  -6.6750   3.3557   3.7827   3.8153   4.0863   5.0796   5.1503
     5.8135   6.6413   6.7495   7.7397   7.9063   8.0683   9.8290   9.8831

          k = 0.8660 1.1667-0.0589 (  1679 PWs)   bands (ev):

    -6.7120  -6.6148   3.0367   3.7570   4.0242   4.2165   4.5828   5.4630
     5.9246   6.3430   7.0630   7.5741   7.7261   8.0286   9.3857   9.6221

          k = 0.5774 1.0000 0.0000 (  1678 PWs)   bands (ev):

    -6.5570  -6.5564   3.3870   3.7827   3.8169   4.2951   4.4896   5.1429
     5.8176   6.4188   7.3195   7.5004   7.6500   8.0489   8.9765   9.3039

          k = 0.8660-0.5000-0.3536 (  1678 PWs)   bands (ev):

    -6.6877  -6.6301   2.5436   3.7337   3.9987   4.3465   5.0164   5.4169
     5.7779   6.5051   6.7867   7.8255   7.8955   7.8977   9.5649   9.7461

          k =-0.0000-0.0000 0.1768 (  1719 PWs)   bands (ev):

    -8.0690  -6.7553   2.7728   3.6454   3.6454   4.9133   4.9133   5.1476
     6.1977   6.1977   7.7109   8.9092   9.0182   9.0182   9.8129   9.8129

          k =-0.2887-0.1667 0.2357 (  1689 PWs)   bands (ev):

    -7.7385  -6.7589   3.0945   3.7483   3.8046   4.6790   4.9190   5.2200
     5.7692   6.2678   7.4348   7.9873   9.1775   9.2465   9.3079   9.3303

          k = 1.1547 0.6667-0.0589 (  1682 PWs)   bands (ev):

    -7.1266  -6.6060   3.1332   3.8079   3.8354   4.4481   4.9755   5.1671
     5.5391   6.4084   6.9783   7.9326   8.3027   8.6654   9.0296   9.4009

          k = 0.8660 0.5000 0.0000 (  1684 PWs)   bands (ev):

    -6.7815  -6.5371   3.0629   3.7030   3.7661   4.2275   5.0586   5.4330
     5.5224   6.5066   6.8946   7.5769   7.9961   8.1714   9.2366   9.6223

          k = 0.5774 0.3333 0.0589 (  1680 PWs)   bands (ev):

    -7.1702  -6.5734   3.6195   3.6617   3.7850   4.1835   5.0124   5.1385
     5.5607   6.6228   7.0312   7.5551   7.9390   8.0917   9.6516   9.9374

          k =-0.2887 0.1667 0.2946 (  1686 PWs)   bands (ev):

    -7.6553  -6.8643   3.3265   3.7373   3.7594   4.5644   4.9341   5.3366
     5.6420   6.2842   7.4622   7.9075   8.5002   8.8164   9.6132  10.1680

          k = 1.1547 1.0000 0.0000 (  1690 PWs)   bands (ev):

    -7.1840  -6.7642   3.2785   3.7498   4.1921   4.3534   4.5017   5.3531
     5.7803   6.1939   7.2165   7.7047   8.3036   8.5820   9.2692   9.7306

          k = 0.8660 0.8333 0.0589 (  1677 PWs)   bands (ev):

    -6.7702  -6.5494   3.2921   3.5880   3.7510   4.2839   4.7408   5.4171
     5.8051   6.3080   7.1231   7.5911   7.8643   8.2999   9.2679   9.3224

          k = 0.5774 0.6667 0.1179 (  1668 PWs)   bands (ev):

    -6.7637  -6.5676   3.1279   3.8096   4.0904   4.3318   4.5311   5.2202
     5.9033   6.3051   7.1833   7.4959   7.7897   8.0411   9.2476   9.5117

          k = 1.1547-0.6667-0.2946 (  1681 PWs)   bands (ev):

    -6.9411  -6.8065   3.1552   3.6903   3.7930   4.2697   5.1238   5.1702
     6.0784   6.4583   6.5301   7.6642   8.3144   8.3680   9.6220   9.6329

          k = 0.8660-0.8333-0.2357 (  1684 PWs)   bands (ev):

    -6.7215  -6.5996   3.0817   3.7315   3.8061   4.1882   4.7021   5.6411
     5.7362   6.4314   6.9990   7.6266   7.8375   8.0303   9.3637   9.6072

          k = 0.5774-1.0000-0.1768 (  1682 PWs)   bands (ev):

    -6.5570  -6.5564   3.3933   3.6971   3.9375   4.2242   4.5191   5.1397
     5.8244   6.4218   7.3188   7.4310   7.7325   8.0304   8.9780   9.3020

          k = 0.8660-0.5000-0.1768 (  1664 PWs)   bands (ev):

    -6.7337  -6.5842   2.6880   3.7446   3.8847   4.3413   5.0500   5.4218
     5.7018   6.6134   6.6811   7.6940   7.9632   8.0018   9.5816   9.5919

          k =-0.0000-0.0000 0.3536 (  1696 PWs)   bands (ev):

    -7.8265  -7.0748   3.3491   3.6854   3.6854   4.9004   4.9503   4.9503
     6.0865   6.0865   7.5652   8.2209   8.7755   8.7755  10.1513  10.1513

          k = 1.4434 0.8333 0.0589 (  1691 PWs)   bands (ev):

    -7.4969  -7.0460   3.2714   3.7775   4.0221   4.6199   4.9471   5.1799
     5.5890   6.1800   7.2379   8.0823   8.8764   8.9203   9.4561   9.6822

          k = 1.1547 0.6667 0.1179 (  1673 PWs)   bands (ev):

    -7.0051  -6.7338   3.0741   3.6960   3.8060   4.3944   5.0776   5.1796
     5.8886   6.4192   6.6738   7.7265   8.6557   8.6696   9.1409   9.3299

          k = 1.4434-0.8333-0.2357 (  1692 PWs)   bands (ev):

    -7.3759  -7.1778   3.3745   3.7830   4.0128   4.5662   4.9554   5.2544
     5.5028   6.1853   7.2338   7.9312   8.6343   9.1550   9.2517  10.0262

          k = 1.1547-1.0000-0.1768 (  1686 PWs)   bands (ev):

    -7.0310  -6.9228   3.2323   3.7671   4.2473   4.3542   4.4239   5.3871
     5.8746   6.1241   7.1404   7.7294   8.4157   8.6361   9.1699   9.7155

          k = 0.0000 0.0000-0.5303 (  1702 PWs)   bands (ev):

    -7.4772  -7.4614   3.7059   3.7059   3.8167   4.6006   4.9716   4.9716
     6.0273   6.0273   7.4519   7.9592   8.6918   8.6918  10.2845  10.2845

 ------ SPIN DOWN ----------


          k = 0.0000 0.0000 0.0000 (  1701 PWs)   bands (ev):

    -8.1543  -6.6302   2.5437   3.6260   3.6260   4.8969   4.8969   5.2176
     6.2506   6.2506   7.7707   9.3358   9.3358   9.3396   9.4490   9.4490

          k =-0.2887-0.1667 0.0589 (  1696 PWs)   bands (ev):

    -7.8557  -6.6068   2.9794   3.6776   3.7254   4.6601   4.9006   5.2765
     5.8943   6.3626   7.6830   7.8757   8.8368   8.8935   9.6957   9.7214

          k =-0.5774-0.3333 0.1179 (  1683 PWs)   bands (ev):

    -7.1883  -6.5465   3.3359   3.7973   3.8726   4.3708   4.9533   5.1458
     5.4027   6.5024   7.0978   7.7164   8.0917   8.3447   9.2749   9.7453

          k = 0.8660 0.5000-0.1768 (  1684 PWs)   bands (ev):

    -6.7993  -6.5197   3.3688   3.6536   3.7770   3.9846   5.1207   5.3822
     5.4392   6.4304   7.0472   7.5806   8.0059   8.2419   9.0147   9.6466

          k =-0.2887 0.1667 0.1179 (  1696 PWs)   bands (ev):

    -7.8263  -6.6475   3.0860   3.6473   3.7309   4.6005   4.9077   5.3218
     5.8423   6.3740   7.6247   8.1646   8.4326   8.5643   9.8782  10.0491

          k =-0.5774-0.0000 0.1768 (  1688 PWs)   bands (ev):

    -7.3238  -6.6133   3.3891   3.7317   4.0150   4.3887   4.6636   5.3169
     5.6025   6.3231   7.3794   7.5290   8.1577   8.5606   9.4100   9.7156

          k = 0.8660 0.8333-0.1179 (  1685 PWs)   bands (ev):

    -6.8008  -6.5233   3.3847   3.6482   3.8021   4.4730   4.7140   5.0394
     5.9167   6.1234   7.2059   7.6590   7.8412   8.5828   8.8242   9.2883

          k = 0.5774 0.6667-0.0589 (  1682 PWs)   bands (ev):

    -6.7992  -6.5308   3.2623   3.8304   3.9247   4.5457   4.6367   4.9044
     5.8711   6.2069   7.2489   7.5816   7.8349   8.2685   8.9518   9.4042

          k = 0.2887 0.5000 0.0000 (  1687 PWs)   bands (ev):

    -7.3747  -6.5569   3.4594   3.7775   3.8484   4.4231   4.7443   5.3372
     5.4864   6.3798   7.4345   7.6180   7.7741   8.8901   9.2030   9.7897

          k =-0.5774 0.3333 0.2357 (  1684 PWs)   bands (ev):

    -7.0747  -6.6750   3.3556   3.7826   3.8153   4.0862   5.0795   5.1501
     5.8135   6.6414   6.7495   7.7398   7.9063   8.0683   9.8290   9.8831

          k = 0.8660 1.1667-0.0589 (  1679 PWs)   bands (ev):

    -6.7120  -6.6148   3.0366   3.7570   4.0241   4.2165   4.5827   5.4629
     5.9247   6.3430   7.0631   7.5740   7.7261   8.0286   9.3857   9.6222

          k = 0.5774 1.0000 0.0000 (  1678 PWs)   bands (ev):

    -6.5570  -6.5563   3.3870   3.7827   3.8169   4.2949   4.4894   5.1430
     5.8176   6.4188   7.3195   7.5004   7.6500   8.0489   8.9766   9.3039

          k = 0.8660-0.5000-0.3536 (  1678 PWs)   bands (ev):

    -6.6877  -6.6300   2.5436   3.7337   3.9986   4.3465   5.0164   5.4167
     5.7778   6.5050   6.7869   7.8256   7.8955   7.8977   9.5649   9.7462

          k =-0.0000-0.0000 0.1768 (  1719 PWs)   bands (ev):

    -8.0689  -6.7553   2.7728   3.6453   3.6453   4.9132   4.9132   5.1476
     6.1978   6.1978   7.7109   8.9093   9.0183   9.0183   9.8130   9.8130

          k =-0.2887-0.1667 0.2357 (  1689 PWs)   bands (ev):

    -7.7385  -6.7589   3.0944   3.7482   3.8045   4.6790   4.9189   5.2200
     5.7692   6.2679   7.4349   7.9873   9.1775   9.2465   9.3080   9.3304

          k = 1.1547 0.6667-0.0589 (  1682 PWs)   bands (ev):

    -7.1265  -6.6059   3.1331   3.8078   3.8353   4.4481   4.9754   5.1669
     5.5391   6.4085   6.9783   7.9326   8.3027   8.6653   9.0296   9.4010

          k = 0.8660 0.5000 0.0000 (  1684 PWs)   bands (ev):

    -6.7815  -6.5371   3.0629   3.7029   3.7661   4.2275   5.0586   5.4328
     5.5224   6.5068   6.8945   7.5769   7.9962   8.1713   9.2366   9.6223

          k = 0.5774 0.3333 0.0589 (  1680 PWs)   bands (ev):

    -7.1702  -6.5733   3.6196   3.6615   3.7850   4.1835   5.0123   5.1383
     5.5607   6.6229   7.0312   7.5551   7.9391   8.0917   9.6516   9.9374

          k =-0.2887 0.1667 0.2946 (  1686 PWs)   bands (ev):

    -7.6553  -6.8643   3.3264   3.7372   3.7593   4.5643   4.9340   5.3366
     5.6419   6.2843   7.4623   7.9076   8.5003   8.8164   9.6133  10.1681

          k = 1.1547 1.0000 0.0000 (  1690 PWs)   bands (ev):

    -7.1839  -6.7641   3.2784   3.7497   4.1920   4.3534   4.5016   5.3529
     5.7803   6.1940   7.2167   7.7047   8.3036   8.5820   9.2692   9.7306

          k = 0.8660 0.8333 0.0589 (  1677 PWs)   bands (ev):

    -6.7702  -6.5494   3.2920   3.5880   3.7509   4.2839   4.7406   5.4171
     5.8050   6.3080   7.1232   7.5911   7.8643   8.2999   9.2679   9.3224

          k = 0.5774 0.6667 0.1179 (  1668 PWs)   bands (ev):

    -6.7636  -6.5676   3.1279   3.8095   4.0903   4.3318   4.5311   5.2202
     5.9033   6.3051   7.1834   7.4958   7.7897   8.0412   9.2476   9.5117

          k = 1.1547-0.6667-0.2946 (  1681 PWs)   bands (ev):

    -6.9410  -6.8064   3.1551   3.6903   3.7929   4.2696   5.1237   5.1700
     6.0784   6.4583   6.5302   7.6643   8.3145   8.3680   9.6220   9.6328

          k = 0.8660-0.8333-0.2357 (  1684 PWs)   bands (ev):

    -6.7214  -6.5996   3.0817   3.7315   3.8060   4.1882   4.7019   5.6411
     5.7362   6.4314   6.9991   7.6267   7.8375   8.0302   9.3637   9.6072

          k = 0.5774-1.0000-0.1768 (  1682 PWs)   bands (ev):

    -6.5569  -6.5564   3.3933   3.6971   3.9375   4.2240   4.5189   5.1397
     5.8244   6.4218   7.3187   7.4310   7.7325   8.0304   8.9780   9.3021

          k = 0.8660-0.5000-0.1768 (  1664 PWs)   bands (ev):

    -6.7337  -6.5842   2.6879   3.7445   3.8846   4.3413   5.0500   5.4216
     5.7017   6.6134   6.6813   7.6940   7.9633   8.0018   9.5816   9.5919

          k =-0.0000-0.0000 0.3536 (  1696 PWs)   bands (ev):

    -7.8264  -7.0747   3.3490   3.6853   3.6853   4.9004   4.9502   4.9502
     6.0865   6.0865   7.5652   8.2209   8.7757   8.7757  10.1513  10.1513

          k = 1.4434 0.8333 0.0589 (  1691 PWs)   bands (ev):

    -7.4969  -7.0459   3.2713   3.7774   4.0221   4.6199   4.9470   5.1798
     5.5889   6.1801   7.2380   8.0823   8.8765   8.9204   9.4561   9.6821

          k = 1.1547 0.6667 0.1179 (  1673 PWs)   bands (ev):

    -7.0051  -6.7337   3.0739   3.6960   3.8059   4.3944   5.0775   5.1794
     5.8886   6.4193   6.6738   7.7265   8.6557   8.6697   9.1409   9.3299

          k = 1.4434-0.8333-0.2357 (  1692 PWs)   bands (ev):

    -7.3759  -7.1778   3.3743   3.7829   4.0128   4.5661   4.9553   5.2543
     5.5027   6.1853   7.2340   7.9312   8.6345   9.1550   9.2517  10.0262

          k = 1.1547-1.0000-0.1768 (  1686 PWs)   bands (ev):

    -7.0309  -6.9228   3.2322   3.7671   4.2472   4.3542   4.4238   5.3870
     5.8745   6.1242   7.1405   7.7294   8.4157   8.6361   9.1699   9.7155

          k = 0.0000 0.0000-0.5303 (  1702 PWs)   bands (ev):

    -7.4771  -7.4614   3.7058   3.7058   3.8167   4.6006   4.9715   4.9715
     6.0273   6.0273   7.4519   7.9592   8.6920   8.6920  10.2845  10.2845

     highest occupied level (ev):    10.2845

!    total energy              =    -264.80246352 Ry
     estimated scf accuracy    <          7.2E-10 Ry

     The total energy is the sum of the following terms:
     one-electron contribution =     -30.00149029 Ry
     hartree contribution      =      53.93656895 Ry
     xc contribution           =     -97.36518294 Ry
     ewald contribution        =    -191.52820649 Ry
     Hubbard energy            =       0.15584725 Ry

     total magnetization       =    -0.00 Bohr mag/cell
     absolute magnetization    =     3.62 Bohr mag/cell

     convergence has been achieved in  81 iterations
     force_hub    :      0.56s CPU      0.58s WALL (       1 calls)
     dndtau       :      0.50s CPU      0.52s WALL (     768 calls)
     dprojdtau    :      0.12s CPU      0.12s WALL (    1536 calls)
     calc_doverla :      0.26s CPU      0.26s WALL (     768 calls)
     matel_dSdtau :      0.32s CPU      0.33s WALL (    1536 calls)

     Forces acting on atoms (cartesian axes, Ry/au):

     atom    1 type  1   force =     0.00000000    0.00000000    0.00000000
     atom    2 type  2   force =    -0.00000000    0.00000000    0.00000000
     atom    3 type  3   force =    -0.00000000    0.00000000   -0.00001144
     atom    4 type  3   force =    -0.00000000   -0.00000000    0.00001144

     Total force =     0.000016     Total SCF correction =     0.000037
     SCF correction compared to forces is large: reduce conv_thr to get better values


     Computing stress (Cartesian axis) and pressure

     stres_hub    :      1.49s CPU      1.53s WALL (       1 calls)
     dprojdepsilo :      1.35s CPU      1.39s WALL (     576 calls)
     dprojdeps1   :      0.09s CPU      0.09s WALL (     576 calls)
     dprojdeps2   :      0.86s CPU      0.88s WALL (     576 calls)
     dprojdeps3   :      0.40s CPU      0.42s WALL (     576 calls)
          total   stress  (Ry/bohr**3)                   (kbar)     P=       47.56
   0.00033067  -0.00000000  -0.00000000           48.64       -0.00       -0.00
   0.00000000   0.00033067   0.00000000            0.00       48.64        0.00
  -0.00000000   0.00000000   0.00030855           -0.00        0.00       45.39


     BFGS Geometry Optimization
     Energy error            =      1.9E-03 Ry
     Gradient error          =      1.1E-05 Ry/Bohr
     Cell gradient error     =      4.9E+01 kbar

     number of scf cycles    =   1
     number of bfgs steps    =   0

     enthalpy           new  =    -264.8024635185 Ry

     new trust radius        =       0.0258446778 bohr
     new conv_thr            =       0.0000000010 Ry

     new unit-cell volume =    250.32145 a.u.^3 (    37.09381 Ang^3 )
     density =      6.68735 g/cm^3

CELL_PARAMETERS (alat=  9.64700000)
   0.291061550  -0.168044464   0.950081646
  -0.000000000   0.336088929   0.950081646
  -0.291061550  -0.168044464   0.950081646

ATOMIC_POSITIONS (crystal)
Ni1              0.0000000000        0.0000000000       -0.0000000000
Ni2             -0.5000000000        1.5000000000       -0.5000000000
O                0.7499995806       -0.2500004194       -0.2500004194
O               -0.7499995806        0.2500004194        0.2500004194



     Writing config-only to output data dir /Users/kirill/Documents/dft/volume/NiO_struct_opt_dft_U/out/NiO.save/ :
     XML data file
     NEW-OLD atomic charge density approx. for the potential
     New effective cutoffs (rho, wfc):  541.32   54.14
     Generating pointlists ...

     Atomic wfc used for Hubbard projectors are orthogonalized


     total cpu time spent up to now is      166.5 secs

     Self-consistent Calculation

     iteration #  1     ecut=    55.00 Ry     beta= 0.20
     Davidson diagonalization with overlap
     ethr =  1.00E-06,  avg # of iterations =  9.4

     =================== HUBBARD OCCUPATIONS ===================
     ------------------------ ATOM    1 ------------------------
     Tr[ns(  1)] (up, down, total) =   3.26001  4.98078  8.24079
     Atomic magnetic moment for atom   1 =  -1.72077
     SPIN  1
     eigenvalues:
       0.138  0.138  0.995  0.995  0.995
     eigenvectors (columns):
      -0.000 -0.000 -0.000 -0.000  1.000
       0.714 -0.397 -0.138 -0.561 -0.000
       0.397  0.714 -0.561  0.138 -0.000
       0.281  0.505  0.793 -0.195  0.000
       0.505 -0.281  0.195  0.793  0.000
     occupation matrix ns (before diag.):
       0.995 -0.000 -0.000  0.000  0.000
      -0.000  0.424 -0.000  0.000 -0.404
      -0.000 -0.000  0.424 -0.404  0.000
       0.000  0.000 -0.404  0.709 -0.000
       0.000 -0.404  0.000 -0.000  0.709
     SPIN  2
     eigenvalues:
       0.995  0.995  0.997  0.997  0.997
     eigenvectors (columns):
       0.000 -0.000 -1.000  0.000  0.000
      -0.699 -0.416 -0.000 -0.136 -0.566
      -0.416  0.699 -0.000 -0.566  0.136
      -0.298  0.500  0.000  0.791 -0.190
      -0.500 -0.298  0.000  0.190  0.791
     occupation matrix ns (before diag.):
       0.997  0.000  0.000  0.000  0.000
       0.000  0.995  0.000 -0.000 -0.001
       0.000  0.000  0.995 -0.001 -0.000
       0.000 -0.000 -0.001  0.996 -0.000
[...]
     SPIN  1
     eigenvalues:
       0.995  0.995  0.997  0.997  0.997
     eigenvectors (columns):
       0.000 -0.000 -1.000  0.000  0.000
      -0.700 -0.415 -0.000 -0.136 -0.565
      -0.415  0.700 -0.000 -0.565  0.136
      -0.297  0.500  0.000  0.791 -0.191
      -0.500 -0.297  0.000  0.191  0.791
     occupation matrix ns (before diag.):
       0.997  0.000  0.000  0.000  0.000
       0.000  0.996  0.000 -0.000 -0.001
       0.000  0.000  0.996 -0.001 -0.000
       0.000 -0.000 -0.001  0.996 -0.000
       0.000 -0.001 -0.000 -0.000  0.996
     SPIN  2
     eigenvalues:
       0.137  0.137  0.995  0.995  0.995
     eigenvectors (columns):
      -0.000 -0.000 -0.000 -0.000  1.000
       0.711 -0.401 -0.138 -0.561 -0.000
       0.401  0.711 -0.561  0.138 -0.000
       0.284  0.503  0.793 -0.195  0.000
       0.503 -0.284  0.195  0.793  0.000
     occupation matrix ns (before diag.):
       0.995 -0.000 -0.000  0.000  0.000
      -0.000  0.423 -0.000  0.000 -0.404
      -0.000 -0.000  0.423 -0.404  0.000
       0.000  0.000 -0.404  0.709 -0.000
       0.000 -0.404  0.000 -0.000  0.709

     Number of occupied Hubbard levels =   16.4796

 ------ SPIN UP ------------


          k = 0.0000 0.0000 0.0000 (  1731 PWs)   bands (ev):

    -8.3377  -6.8753   2.3248   3.2902   3.2902   4.5134   4.5134   4.8560
     5.8656   5.8656   7.3791   9.0259   9.0259   9.0373   9.1117   9.1117

          k =-0.2865-0.1654 0.0585 (  1732 PWs)   bands (ev):

    -8.0505  -6.8518   2.7405   3.3534   3.3845   4.2966   4.5237   4.9187
     5.5366   5.9740   7.3024   7.5681   8.5302   8.5546   9.3451   9.3746

          k =-0.5730-0.3308 0.1171 (  1727 PWs)   bands (ev):

    -7.4100  -6.7936   3.0512   3.4543   3.5744   4.0663   4.6421   4.7598
     5.0574   6.1168   6.7499   7.3626   7.7109   8.0425   8.9291   9.3827

          k = 0.8594 0.4962-0.1756 (  1722 PWs)   bands (ev):

    -7.0374  -6.7685   3.1039   3.3391   3.4365   3.7478   4.7241   5.0271
     5.0839   6.0695   6.6813   7.2306   7.6544   7.9292   8.6436   9.2829

          k =-0.2865 0.1654 0.1171 (  1741 PWs)   bands (ev):

    -8.0223  -6.8905   2.8475   3.3176   3.3889   4.2450   4.5289   4.9603
     5.4857   5.9853   7.2469   7.8285   8.1247   8.2695   9.5245   9.6875

          k =-0.5730-0.0000 0.1756 (  1723 PWs)   bands (ev):

    -7.5398  -6.8570   3.0967   3.4062   3.7115   4.0417   4.3310   4.9709
     5.2522   5.9400   7.0216   7.1797   7.8212   8.2316   9.0578   9.3593

          k = 0.8594 0.8270-0.1171 (  1721 PWs)   bands (ev):

    -7.0386  -6.7720   3.0953   3.3716   3.4788   4.1570   4.3788   4.6966
     5.5476   5.7548   6.8451   7.3032   7.4941   8.2388   8.4764   8.9275

          k = 0.5730 0.6616-0.0585 (  1727 PWs)   bands (ev):

    -7.0379  -6.7784   2.9836   3.5249   3.5974   4.2235   4.3317   4.5608
     5.5066   5.8304   6.8912   7.2270   7.4947   7.9197   8.5916   9.0514

          k = 0.2865 0.4962 0.0000 (  1719 PWs)   bands (ev):

    -7.5889  -6.8031   3.1575   3.4539   3.5589   4.0735   4.3951   5.0180
     5.1245   5.9918   7.0936   7.2500   7.4555   8.5355   8.8653   9.4317

          k =-0.5730 0.3308 0.2342 (  1707 PWs)   bands (ev):

    -7.3020  -6.9150   3.0895   3.4403   3.4954   3.7854   4.7613   4.7650
     5.4456   6.2417   6.4018   7.3573   7.5935   7.7817   9.4660   9.5232

          k = 0.8594 1.1578-0.0585 (  1715 PWs)   bands (ev):

    -6.9552  -6.8582   2.7923   3.4292   3.6918   3.8950   4.2815   5.1025
     5.5447   5.9590   6.6893   7.2756   7.3429   7.7221   9.0268   9.2583

          k = 0.5730 0.9924 0.0000 (  1732 PWs)   bands (ev):

    -6.8051  -6.8044   3.1050   3.4637   3.5495   3.9821   4.1419   4.8334
     5.4316   6.0259   6.9796   7.1856   7.2732   7.6904   8.6180   8.9427

          k = 0.8594-0.4962-0.3512 (  1708 PWs)   bands (ev):

    -6.9264  -6.8788   2.3236   3.3973   3.6630   4.0074   4.8057   5.0059
     5.3732   6.1020   6.3793   7.4245   7.6167   7.6274   9.2202   9.3824

          k =-0.0000-0.0000 0.1756 (  1746 PWs)   bands (ev):

    -8.2554  -6.9943   2.5426   3.3076   3.3076   4.5287   4.5287   4.7952
     5.8187   5.8187   7.3245   8.5952   8.7110   8.7110   9.4683   9.4683

          k =-0.2865-0.1654 0.2342 (  1727 PWs)   bands (ev):

    -7.9375  -6.9971   2.8312   3.4055   3.4893   4.3119   4.5415   4.8747
     5.4290   5.8884   7.0829   7.6376   8.8203   8.9199   8.9779   8.9951

          k = 1.1459 0.6616-0.0585 (  1714 PWs)   bands (ev):

    -7.3497  -6.8514   2.8620   3.4645   3.5417   4.1182   4.6644   4.7785
     5.2045   6.0321   6.6172   7.5441   7.9638   8.3461   8.6845   9.0545

          k = 0.8594 0.4962 0.0000 (  1715 PWs)   bands (ev):

    -7.0201  -6.7855   2.8218   3.3901   3.4268   3.9421   4.7243   5.0212
     5.1822   6.1376   6.5217   7.2298   7.6484   7.8630   8.8682   9.2641

          k = 0.5730 0.3308 0.0585 (  1721 PWs)   bands (ev):

    -7.3932  -6.8183   3.3290   3.3638   3.4425   3.8862   4.6987   4.7520
     5.2027   6.2246   6.6893   7.2102   7.5670   7.8047   9.2948   9.5701

          k =-0.2865 0.1654 0.2927 (  1731 PWs)   bands (ev):

    -7.8576  -7.0976   3.0520   3.4143   3.4216   4.2150   4.5527   4.9840
     5.3020   5.9063   7.0951   7.5607   8.2047   8.4912   9.2652   9.8001

          k = 1.1459 0.9924 0.0000 (  1719 PWs)   bands (ev):

    -7.4052  -7.0017   2.9930   3.4160   3.8715   4.0135   4.1931   4.9890
     5.4279   5.8224   6.8536   7.3279   8.0025   8.2445   8.9214   9.3713

          k = 0.8594 0.8270 0.0585 (  1718 PWs)   bands (ev):

    -7.0086  -6.7978   3.0394   3.2912   3.4254   3.9636   4.4030   5.0608
     5.4352   5.9275   6.7649   7.2276   7.5390   7.9723   8.8984   8.9693

          k = 0.5730 0.6616 0.1171 (  1716 PWs)   bands (ev):

    -7.0044  -6.8131   2.8679   3.4898   3.7477   4.0062   4.2412   4.8704
     5.5332   5.9236   6.8206   7.1457   7.4730   7.6910   8.8817   9.1590

          k = 1.1459-0.6616-0.2927 (  1718 PWs)   bands (ev):

    -7.1735  -7.0412   2.8959   3.3903   3.4502   3.9383   4.7789   4.8101
     5.7076   6.1195   6.1440   7.2835   8.0088   8.0508   9.2573   9.2864

          k = 0.8594-0.8270-0.2342 (  1716 PWs)   bands (ev):

    -6.9621  -6.8457   2.8415   3.4019   3.4944   3.8708   4.3752   5.2848
     5.3543   6.0366   6.6432   7.2614   7.5094   7.7288   8.9990   9.2454

          k = 0.5730-0.9924-0.1756 (  1712 PWs)   bands (ev):

    -6.8051  -6.8044   3.1113   3.3982   3.6523   3.9075   4.1724   4.8302
     5.4386   6.0284   6.9977   7.0842   7.3646   7.6775   8.6203   8.9404

          k = 0.8594-0.4962-0.1756 (  1713 PWs)   bands (ev):

    -6.9734  -6.8318   2.4631   3.4072   3.5594   4.0131   4.8000   5.0106
     5.3170   6.2215   6.2903   7.3378   7.6400   7.7088   9.2267   9.2328

          k =-0.0000-0.0000 0.3512 (  1735 PWs)   bands (ev):

    -8.0216  -7.2995   3.0853   3.3436   3.3436   4.5629   4.5629   4.5791
     5.7203   5.7203   7.2000   7.8815   8.4757   8.4757   9.7898   9.7898

          k = 1.4324 0.8270 0.0585 (  1725 PWs)   bands (ev):

    -7.7047  -7.2720   2.9768   3.4318   3.7072   4.2645   4.5670   4.8532
     5.2601   5.8103   6.8848   7.7061   8.5495   8.6045   9.1060   9.3355

          k = 1.1459 0.6616 0.1171 (  1724 PWs)   bands (ev):

    -7.2323  -6.9744   2.8118   3.4049   3.4626   4.0537   4.7646   4.7884
     5.5461   6.0431   6.3170   7.3426   8.3356   8.3435   8.7752   8.9959

          k = 1.4324-0.8270-0.2342 (  1720 PWs)   bands (ev):

    -7.5888  -7.3980   3.0695   3.4362   3.7002   4.2201   4.5730   4.9329
     5.1667   5.8171   6.8799   7.5606   8.3303   8.8191   8.9101   9.6641

          k = 1.1459-0.9924-0.1756 (  1718 PWs)   bands (ev):

    -7.2581  -7.1540   2.9486   3.4301   3.9102   4.0267   4.1239   5.0171
     5.5190   5.7593   6.7794   7.3447   8.1143   8.3092   8.8143   9.3589

          k = 0.0000-0.0000-0.5269 (  1756 PWs)   bands (ev):

    -7.6856  -7.6704   3.3620   3.3620   3.5102   4.3235   4.5822   4.5822
     5.6682   5.6682   7.1084   7.5956   8.3940   8.3940   9.9157   9.9157

 ------ SPIN DOWN ----------


          k = 0.0000 0.0000 0.0000 (  1731 PWs)   bands (ev):

    -8.3377  -6.8753   2.3248   3.2902   3.2902   4.5134   4.5134   4.8560
     5.8656   5.8656   7.3791   9.0259   9.0259   9.0373   9.1117   9.1117

          k =-0.2865-0.1654 0.0585 (  1732 PWs)   bands (ev):

    -8.0505  -6.8518   2.7405   3.3534   3.3845   4.2966   4.5237   4.9187
     5.5366   5.9740   7.3023   7.5681   8.5302   8.5547   9.3451   9.3746

          k =-0.5730-0.3308 0.1171 (  1727 PWs)   bands (ev):

    -7.4100  -6.7936   3.0512   3.4543   3.5744   4.0663   4.6421   4.7598
     5.0574   6.1168   6.7499   7.3626   7.7109   8.0425   8.9291   9.3827

          k = 0.8594 0.4962-0.1756 (  1722 PWs)   bands (ev):

    -7.0374  -6.7685   3.1039   3.3391   3.4365   3.7478   4.7241   5.0271
     5.0839   6.0695   6.6813   7.2306   7.6544   7.9291   8.6436   9.2829

          k =-0.2865 0.1654 0.1171 (  1741 PWs)   bands (ev):

    -8.0223  -6.8905   2.8475   3.3176   3.3889   4.2450   4.5289   4.9603
     5.4856   5.9853   7.2469   7.8285   8.1247   8.2696   9.5245   9.6875

          k =-0.5730-0.0000 0.1756 (  1723 PWs)   bands (ev):

    -7.5398  -6.8570   3.0967   3.4062   3.7115   4.0417   4.3310   4.9709
     5.2523   5.9400   7.0216   7.1797   7.8212   8.2316   9.0578   9.3593

          k = 0.8594 0.8270-0.1171 (  1721 PWs)   bands (ev):

    -7.0386  -6.7720   3.0953   3.3716   3.4788   4.1570   4.3788   4.6966
     5.5476   5.7548   6.8451   7.3032   7.4941   8.2388   8.4764   8.9275

          k = 0.5730 0.6616-0.0585 (  1727 PWs)   bands (ev):

    -7.0379  -6.7784   2.9836   3.5249   3.5975   4.2235   4.3317   4.5608
     5.5066   5.8304   6.8912   7.2270   7.4947   7.9197   8.5916   9.0514

          k = 0.2865 0.4962 0.0000 (  1719 PWs)   bands (ev):

    -7.5888  -6.8030   3.1575   3.4539   3.5589   4.0735   4.3951   5.0180
     5.1245   5.9919   7.0936   7.2500   7.4555   8.5355   8.8653   9.4317

          k =-0.5730 0.3308 0.2342 (  1707 PWs)   bands (ev):

    -7.3020  -6.9150   3.0895   3.4403   3.4955   3.7854   4.7613   4.7650
     5.4456   6.2417   6.4018   7.3573   7.5935   7.7817   9.4660   9.5232

          k = 0.8594 1.1578-0.0585 (  1715 PWs)   bands (ev):

    -6.9552  -6.8582   2.7923   3.4292   3.6918   3.8950   4.2815   5.1025
     5.5447   5.9590   6.6893   7.2756   7.3429   7.7221   9.0268   9.2583

          k = 0.5730 0.9924 0.0000 (  1732 PWs)   bands (ev):

    -6.8051  -6.8044   3.1050   3.4637   3.5495   3.9821   4.1419   4.8334
     5.4316   6.0259   6.9796   7.1856   7.2732   7.6904   8.6180   8.9427

          k = 0.8594-0.4962-0.3512 (  1708 PWs)   bands (ev):

    -6.9264  -6.8788   2.3236   3.3973   3.6630   4.0074   4.8057   5.0059
     5.3732   6.1020   6.3794   7.4245   7.6167   7.6274   9.2202   9.3825

          k =-0.0000-0.0000 0.1756 (  1746 PWs)   bands (ev):

    -8.2554  -6.9943   2.5426   3.3076   3.3076   4.5287   4.5287   4.7952
     5.8187   5.8187   7.3245   8.5952   8.7110   8.7110   9.4683   9.4683

          k =-0.2865-0.1654 0.2342 (  1727 PWs)   bands (ev):

    -7.9375  -6.9971   2.8312   3.4055   3.4893   4.3119   4.5415   4.8747
     5.4290   5.8884   7.0829   7.6376   8.8203   8.9199   8.9780   8.9952

          k = 1.1459 0.6616-0.0585 (  1714 PWs)   bands (ev):

    -7.3497  -6.8514   2.8620   3.4645   3.5417   4.1182   4.6644   4.7785
     5.2045   6.0321   6.6172   7.5441   7.9638   8.3461   8.6845   9.0545

          k = 0.8594 0.4962 0.0000 (  1715 PWs)   bands (ev):

    -7.0201  -6.7855   2.8218   3.3901   3.4268   3.9421   4.7243   5.0212
     5.1822   6.1377   6.5217   7.2297   7.6484   7.8629   8.8683   9.2641

          k = 0.5730 0.3308 0.0585 (  1721 PWs)   bands (ev):

    -7.3932  -6.8183   3.3290   3.3638   3.4425   3.8862   4.6987   4.7520
     5.2027   6.2246   6.6893   7.2102   7.5670   7.8047   9.2948   9.5702

          k =-0.2865 0.1654 0.2927 (  1731 PWs)   bands (ev):

    -7.8576  -7.0976   3.0520   3.4143   3.4216   4.2150   4.5527   4.9840
     5.3020   5.9063   7.0951   7.5607   8.2047   8.4912   9.2652   9.8001

          k = 1.1459 0.9924 0.0000 (  1719 PWs)   bands (ev):

    -7.4052  -7.0017   2.9930   3.4160   3.8715   4.0135   4.1931   4.9890
     5.4279   5.8224   6.8536   7.3279   8.0025   8.2445   8.9215   9.3713

          k = 0.8594 0.8270 0.0585 (  1718 PWs)   bands (ev):

    -7.0086  -6.7978   3.0394   3.2912   3.4254   3.9636   4.4030   5.0608
     5.4352   5.9274   6.7649   7.2276   7.5389   7.9723   8.8984   8.9693

          k = 0.5730 0.6616 0.1171 (  1716 PWs)   bands (ev):

    -7.0044  -6.8131   2.8679   3.4898   3.7477   4.0062   4.2412   4.8704
     5.5332   5.9236   6.8206   7.1457   7.4730   7.6910   8.8817   9.1590

          k = 1.1459-0.6616-0.2927 (  1718 PWs)   bands (ev):

    -7.1735  -7.0412   2.8959   3.3903   3.4502   3.9383   4.7789   4.8101
     5.7076   6.1195   6.1440   7.2835   8.0088   8.0508   9.2573   9.2864

          k = 0.8594-0.8270-0.2342 (  1716 PWs)   bands (ev):

    -6.9621  -6.8457   2.8415   3.4019   3.4944   3.8708   4.3752   5.2848
     5.3543   6.0366   6.6432   7.2614   7.5093   7.7288   8.9990   9.2454

          k = 0.5730-0.9924-0.1756 (  1712 PWs)   bands (ev):

    -6.8051  -6.8044   3.1113   3.3982   3.6523   3.9075   4.1724   4.8302
     5.4386   6.0284   6.9976   7.0842   7.3646   7.6775   8.6203   8.9404

          k = 0.8594-0.4962-0.1756 (  1713 PWs)   bands (ev):

    -6.9734  -6.8318   2.4631   3.4072   3.5595   4.0131   4.8000   5.0106
     5.3170   6.2215   6.2903   7.3378   7.6400   7.7088   9.2268   9.2328

          k =-0.0000-0.0000 0.3512 (  1735 PWs)   bands (ev):

    -8.0216  -7.2995   3.0853   3.3435   3.3435   4.5629   4.5629   4.5791
     5.7202   5.7202   7.2000   7.8815   8.4757   8.4757   9.7898   9.7898

          k = 1.4324 0.8270 0.0585 (  1725 PWs)   bands (ev):

    -7.7047  -7.2720   2.9768   3.4318   3.7072   4.2645   4.5670   4.8532
     5.2601   5.8103   6.8848   7.7061   8.5495   8.6045   9.1060   9.3355

          k = 1.1459 0.6616 0.1171 (  1724 PWs)   bands (ev):

    -7.2323  -6.9744   2.8118   3.4049   3.4626   4.0537   4.7646   4.7884
     5.5461   6.0431   6.3170   7.3426   8.3357   8.3435   8.7752   8.9959

          k = 1.4324-0.8270-0.2342 (  1720 PWs)   bands (ev):

    -7.5888  -7.3980   3.0695   3.4362   3.7002   4.2202   4.5730   4.9329
     5.1667   5.8170   6.8799   7.5606   8.3303   8.8191   8.9101   9.6642

          k = 1.1459-0.9924-0.1756 (  1718 PWs)   bands (ev):

    -7.2580  -7.1540   2.9485   3.4301   3.9102   4.0267   4.1239   5.0171
     5.5190   5.7593   6.7794   7.3447   8.1143   8.3092   8.8143   9.3589

          k = 0.0000-0.0000-0.5269 (  1756 PWs)   bands (ev):

    -7.6856  -7.6704   3.3620   3.3620   3.5102   4.3234   4.5822   4.5822
     5.6681   5.6681   7.1084   7.5955   8.3941   8.3941   9.9157   9.9157

     highest occupied level (ev):     9.9157

!    total energy              =    -264.80350466 Ry
     estimated scf accuracy    <          5.2E-12 Ry

     The total energy is the sum of the following terms:
     one-electron contribution =     -32.05980020 Ry
     hartree contribution      =      54.54332599 Ry
     xc contribution           =     -97.30050982 Ry
     ewald contribution        =    -190.13849896 Ry
     Hubbard energy            =       0.15197833 Ry

     total magnetization       =     0.00 Bohr mag/cell
     absolute magnetization    =     3.64 Bohr mag/cell

     convergence has been achieved in  51 iterations
     force_hub    :      3.10s CPU      3.23s WALL (       5 calls)
     dndtau       :      2.78s CPU      2.90s WALL (    3840 calls)
     dprojdtau    :      0.63s CPU      0.66s WALL (    7680 calls)
     calc_doverla :      1.43s CPU      1.48s WALL (    3840 calls)
     matel_dSdtau :      1.76s CPU      1.84s WALL (    7680 calls)

     Forces acting on atoms (cartesian axes, Ry/au):

     atom    1 type  1   force =     0.00000000    0.00000000    0.00000000
     atom    2 type  2   force =    -0.00000000   -0.00000000   -0.00000000
     atom    3 type  3   force =     0.00000000    0.00000000    0.00000163
     atom    4 type  3   force =     0.00000000   -0.00000000   -0.00000163

     Total force =     0.000002     Total SCF correction =     0.000000


     Computing stress (Cartesian axis) and pressure

     stres_hub    :      7.51s CPU      7.71s WALL (       5 calls)
     dprojdepsilo :      6.82s CPU      7.00s WALL (    2880 calls)
     dprojdeps1   :      0.44s CPU      0.44s WALL (    2880 calls)
     dprojdeps2   :      4.33s CPU      4.43s WALL (    2880 calls)
     dprojdeps3   :      2.04s CPU      2.12s WALL (    2880 calls)
          total   stress  (Ry/bohr**3)                   (kbar)     P=        0.44
   0.00000489   0.00000000  -0.00000000            0.72        0.00       -0.00
  -0.00000000   0.00000489   0.00000000           -0.00        0.72        0.00
  -0.00000000   0.00000000  -0.00000084           -0.00        0.00       -0.12


     Writing all to output data dir /Users/kirill/Documents/dft/volume/NiO_struct_opt_dft_U/out/NiO.save/ :
     XML data file, charge density, pseudopotentials, collected wavefunctions

     init_run     :      2.09s CPU      2.11s WALL (       2 calls)
     electrons    :    459.60s CPU    466.78s WALL (       5 calls)
     update_pot   :      0.18s CPU      0.19s WALL (       3 calls)
     forces       :      3.87s CPU      4.01s WALL (       5 calls)
     stress       :     10.21s CPU     10.43s WALL (       5 calls)

     Called by init_run:
     wfcinit      :      1.48s CPU      1.50s WALL (       2 calls)
     potinit      :      0.14s CPU      0.14s WALL (       2 calls)
     hinit0       :      0.29s CPU      0.29s WALL (       2 calls)

     Called by electrons:
     c_bands      :    375.65s CPU    381.78s WALL (     230 calls)
     sum_band     :     62.30s CPU     63.13s WALL (     230 calls)
     v_of_rho     :     12.01s CPU     12.13s WALL (     233 calls)
     newd         :      7.61s CPU      7.68s WALL (     233 calls)
     mix_rho      :      1.23s CPU      1.24s WALL (     230 calls)

     Called by c_bands:
     init_us_2    :      2.45s CPU      2.48s WALL (   31168 calls)
     cegterg      :    369.24s CPU    375.18s WALL (   14736 calls)

     Called by *egterg:
     cdiaghg      :     16.54s CPU     16.72s WALL (   89906 calls)
     h_psi        :    328.84s CPU    333.82s WALL (   90368 calls)
     s_psi        :      4.64s CPU      4.71s WALL (   91968 calls)
     g_psi        :      0.41s CPU      0.43s WALL (   75504 calls)

     Called by h_psi:
     h_psi:calbec :      8.05s CPU      8.33s WALL (   90368 calls)
     vloc_psi     :    308.82s CPU    313.09s WALL (   90368 calls)
                                        0.00s GPU  (   90368 calls)
     add_vuspsi   :      4.79s CPU      4.85s WALL (   90368 calls)
     vhpsi        :      6.89s CPU      7.16s WALL (   90368 calls)

     General routines
     calbec       :     22.02s CPU     22.75s WALL (  343616 calls)
     fft          :      7.79s CPU      7.88s WALL (    6022 calls)
     ffts         :      0.24s CPU      0.24s WALL (     926 calls)
     fftw         :    334.68s CPU    338.85s WALL ( 1931610 calls)
     interpolate  :      0.73s CPU      0.74s WALL (     466 calls)

     Parallel routines

     Hubbard U routines
     new_ns       :      0.80s CPU      0.84s WALL (     230 calls)
     vhpsi        :      6.89s CPU      7.16s WALL (   90368 calls)
     force_hub    :      3.10s CPU      3.23s WALL (       5 calls)
     stres_hub    :      7.51s CPU      7.71s WALL (       5 calls)

     PWSCF        :   7m56.40s CPU   8m 4.02s WALL


   This run was terminated on:  16:39:44  18Mar2026            

=------------------------------------------------------------------------------=
   JOB DONE.
=------------------------------------------------------------------------------=
