
     Program PWSCF v.7.5 starts on 24Feb2026 at 20:45:29 

     This program is part of the open-source Quantum ESPRESSO suite
     for quantum simulation of materials; please cite
         "P. Giannozzi et al., J. Phys.:Condens. Matter 21 395502 (2009);
         "P. Giannozzi et al., J. Phys.:Condens. Matter 29 465901 (2017);
         "P. Giannozzi et al., J. Chem. Phys. 152 154105 (2020);
          URL http://www.quantum-espresso.org", 
     in publications or presentations arising from this work. More details at
     http://www.quantum-espresso.org/quote

     Parallel version (MPI), running on     5 processors

     MPI processes distributed on     1 nodes
     0 MiB available memory on the printing compute node when the environment starts

     Reading input from NiO.vc_relax_dft_U.in

     Current dimensions of program PWSCF are:
     Max number of different atomic species (ntypx) = 10
     Max number of k-points (npk) =  40000
     Max angular momentum in pseudopotentials (lmaxx) =  4
     file Ni.pbesol-n-rrkjus_psl.0.1.UPF: wavefunction(s)  3D renormalized
     file Ni.pbesol-n-rrkjus_psl.0.1.UPF: wavefunction(s)  3D renormalized

     R & G space division:  proc/nbgrp/npool/nimage =       5
     Subspace diagonalization in iterative solution of the eigenvalue problem:
     a serial algorithm will be used


     Parallelization info
     --------------------
     sticks:   dense  smooth     PW     G-vecs:    dense   smooth      PW
     Min         235      95     30                 5362     1371     248
     Max         236      95     31                 5364     1371     251
     Sum        1177     475    151                26813     6855    1243

     Using Slab Decomposition



     bravais-lattice index     =            2
     lattice parameter (alat)  =       7.9000  a.u.
     unit-cell volume          =     123.2598 (a.u.)^3
     number of atoms/cell      =            4
     number of atomic types    =            3
     number of electrons       =        32.00 (up:  16.00, down:  16.00)
     number of Kohn-Sham states=           16
     kinetic-energy cutoff     =      55.0000  Ry
     charge density cutoff     =     550.0000  Ry
     scf convergence threshold =      1.0E-09
     mixing beta               =       0.3000
     number of iterations used =            8  plain     mixing
     energy convergence thresh.=      1.0E-05
     force convergence thresh. =      1.0E-04
     press convergence thresh. =      5.0E-01
     Exchange-correlation= PBESOL
                           (   1   4  10   8   0   0   0)
     nstep                     =           50

     Hubbard projectors: ortho-atomic
     Hubbard parameters of DFT+U (Dudarev formulation) in eV:
     U(Ni1-3d) =  4.6000
     U(Ni2-3d) =  4.6000

     Internal variables: lda_plus_u =T, lda_plus_u_kind = 0

     Internal variables: orbital_resolved =F, hub_pot_fix =F, apply_U = F

     celldm(1)=   7.900000  celldm(2)=   0.000000  celldm(3)=   0.000000
     celldm(4)=   0.000000  celldm(5)=   0.000000  celldm(6)=   0.000000

     crystal axes: (cart. coord. in units of alat)
               a(1) = (  -0.500000   0.000000   0.500000 )  
               a(2) = (   0.000000   0.500000   0.500000 )  
               a(3) = (  -0.500000   0.500000   0.000000 )  

     reciprocal axes: (cart. coord. in units 2 pi/alat)
               b(1) = ( -1.000000 -1.000000  1.000000 )  
               b(2) = (  1.000000  1.000000  1.000000 )  
               b(3) = ( -1.000000  1.000000 -1.000000 )  


     PseudoPot. # 1 for Ni read from file:
     /Users/kirill/Documents/dft/volume/NiO_struct_opt_dft_U/../../pot/Ni.pbesol-n-rrkjus_psl.0.1.UPF
     MD5 check sum: 8a65ecc087b22b902f7e15bb4f925df7
     Pseudo is Ultrasoft + core correction, Zval = 10.0
     Generated using "atomic" code by A. Dal Corso  v.5.0.2 svn rev. 9415
     Using radial grid of 1195 points,  6 beta functions with: 
                l(1) =   0
                l(2) =   0
                l(3) =   1
                l(4) =   1
                l(5) =   2
                l(6) =   2
     Q(r) pseudized with 0 coefficients 


     PseudoPot. # 2 for Ni read from file:
     /Users/kirill/Documents/dft/volume/NiO_struct_opt_dft_U/../../pot/Ni.pbesol-n-rrkjus_psl.0.1.UPF
     MD5 check sum: 8a65ecc087b22b902f7e15bb4f925df7
     Pseudo is Ultrasoft + core correction, Zval = 10.0
     Generated using "atomic" code by A. Dal Corso  v.5.0.2 svn rev. 9415
     Using radial grid of 1195 points,  6 beta functions with: 
                l(1) =   0
                l(2) =   0
                l(3) =   1
                l(4) =   1
                l(5) =   2
                l(6) =   2
     Q(r) pseudized with 0 coefficients 


     PseudoPot. # 3 for O  read from file:
     /Users/kirill/Documents/dft/volume/NiO_struct_opt_dft_U/../../pot/O.pbesol-n-rrkjus_psl.1.0.0.UPF
     MD5 check sum: 69b2cf9905362d8720b1d83b4ba3171b
     Pseudo is Ultrasoft + core correction, Zval =  6.0
     Generated using &quot;atomic&quot; code by A. Dal Corso  v.6.3MaX
     Using radial grid of 1095 points,  4 beta functions with: 
                l(1) =   0
                l(2) =   0
                l(3) =   1
                l(4) =   1
     Q(r) pseudized with 0 coefficients 


     atomic species   valence    mass     pseudopotential
     Ni1              10.00    58.69340     Ni( 1.00)
     Ni2              10.00    58.69340     Ni( 1.00)
     O                 6.00    15.99900     O ( 1.00)

     Starting magnetic structure 
     atomic species   magnetization
     Ni1             0.500
     Ni2            -0.500
     O               0.000

     48 Sym. Ops., with inversion, found



   Cartesian axes

     site n.     atom                  positions (alat units)
         1        Ni1    tau(   1) = (   0.0000000   0.0000000   0.0000000  )
         2        Ni2    tau(   2) = (   0.5000000   0.5000000   0.5000000  )
         3        O      tau(   3) = (   0.2500000   0.2500000   0.2500000  )
         4        O      tau(   4) = (   0.7500000   0.7500000   0.7500000  )

     number of k points=     8
                       cart. coord. in units 2pi/alat
        k(    1) = (   0.0000000   0.0000000   0.0000000), wk =   0.0156250
        k(    2) = (  -0.2500000   0.2500000  -0.2500000), wk =   0.1250000
        k(    3) = (   0.5000000  -0.5000000   0.5000000), wk =   0.0625000
        k(    4) = (   0.0000000   0.5000000   0.0000000), wk =   0.0937500
        k(    5) = (   0.7500000  -0.2500000   0.7500000), wk =   0.3750000
        k(    6) = (   0.5000000   0.0000000   0.5000000), wk =   0.1875000
        k(    7) = (   0.0000000  -1.0000000   0.0000000), wk =   0.0468750
        k(    8) = (  -0.5000000  -1.0000000   0.0000000), wk =   0.0937500

     Dense  grid:    26813 G-vectors     FFT dimensions: (  45,  45,  45)

     Smooth grid:     6855 G-vectors     FFT dimensions: (  27,  27,  27)

     Estimated max dynamical RAM per process >      35.25 MB

     Estimated total dynamical RAM >     176.25 MB
     Generating pointlists ...
     new r_m :   0.1786 (alat units)  1.4111 (a.u.) for type    1
     new r_m :   0.1786 (alat units)  1.4111 (a.u.) for type    2
     new r_m :   0.1786 (alat units)  1.4111 (a.u.) for type    3

     Initial potential from superposition of free atoms

     starting charge      31.9995, renormalised to      32.0000

     STARTING HUBBARD OCCUPATIONS:

     =================== HUBBARD OCCUPATIONS ===================
     ------------------------ ATOM    1 ------------------------
     Tr[ns(  1)] (up, down, total) =   5.00000  3.00000  8.00000
     Atomic magnetic moment for atom   1 =   2.00000
     SPIN  1
     eigenvalues:
       1.000  1.000  1.000  1.000  1.000
     eigenvectors (columns):
       1.000  0.000  0.000  0.000  0.000
       0.000  1.000  0.000  0.000  0.000
       0.000  0.000  1.000  0.000  0.000
       0.000  0.000  0.000  1.000  0.000
       0.000  0.000  0.000  0.000  1.000
     occupation matrix ns (before diag.):
       1.000  0.000  0.000  0.000  0.000
       0.000  1.000  0.000  0.000  0.000
       0.000  0.000  1.000  0.000  0.000
       0.000  0.000  0.000  1.000  0.000
       0.000  0.000  0.000  0.000  1.000
     SPIN  2
     eigenvalues:
       0.600  0.600  0.600  0.600  0.600
     eigenvectors (columns):
       1.000  0.000  0.000  0.000  0.000
       0.000  1.000  0.000  0.000  0.000
       0.000  0.000  1.000  0.000  0.000
       0.000  0.000  0.000  1.000  0.000
       0.000  0.000  0.000  0.000  1.000
     occupation matrix ns (before diag.):
       0.600  0.000  0.000  0.000  0.000
       0.000  0.600  0.000  0.000  0.000
       0.000  0.000  0.600  0.000  0.000
       0.000  0.000  0.000  0.600  0.000
       0.000  0.000  0.000  0.000  0.600
     ------------------------ ATOM    2 ------------------------
     Tr[ns(  2)] (up, down, total) =   3.00000  5.00000  8.00000
     Atomic magnetic moment for atom   2 =  -2.00000
     SPIN  1
     eigenvalues:
       0.600  0.600  0.600  0.600  0.600
     eigenvectors (columns):
       1.000  0.000  0.000  0.000  0.000
       0.000  1.000  0.000  0.000  0.000
       0.000  0.000  1.000  0.000  0.000
       0.000  0.000  0.000  1.000  0.000
       0.000  0.000  0.000  0.000  1.000
     occupation matrix ns (before diag.):
       0.600  0.000  0.000  0.000  0.000
       0.000  0.600  0.000  0.000  0.000
       0.000  0.000  0.600  0.000  0.000
       0.000  0.000  0.000  0.600  0.000
       0.000  0.000  0.000  0.000  0.600
     SPIN  2
     eigenvalues:
       1.000  1.000  1.000  1.000  1.000
     eigenvectors (columns):
       1.000  0.000  0.000  0.000  0.000
       0.000  1.000  0.000  0.000  0.000
       0.000  0.000  1.000  0.000  0.000
       0.000  0.000  0.000  1.000  0.000
       0.000  0.000  0.000  0.000  1.000
     occupation matrix ns (before diag.):
       1.000  0.000  0.000  0.000  0.000
       0.000  1.000  0.000  0.000  0.000
       0.000  0.000  1.000  0.000  0.000
       0.000  0.000  0.000  1.000  0.000
       0.000  0.000  0.000  0.000  1.000

     Number of occupied Hubbard levels =   16.0000

     Atomic wfc used for Hubbard projectors are orthogonalized

     Starting wfcs are   26 randomized atomic wfcs

     total cpu time spent up to now is        0.5 secs

     Self-consistent Calculation

     iteration #  1     ecut=    55.00 Ry     beta= 0.30
     Davidson diagonalization with overlap
     ethr =  1.00E-02,  avg # of iterations =  2.8

     =================== HUBBARD OCCUPATIONS ===================
     ------------------------ ATOM    1 ------------------------
     Tr[ns(  1)] (up, down, total) =   4.90802  3.53239  8.44041
     Atomic magnetic moment for atom   1 =   1.37563
     SPIN  1
     eigenvalues:
       0.977  0.977  0.977  0.988  0.988
     eigenvectors (columns):
      -0.000 -0.000  0.000 -0.365  0.931
      -0.292 -0.937  0.190 -0.000 -0.000
      -0.610  0.030 -0.792 -0.000 -0.000
       0.000  0.000 -0.000 -0.931 -0.365
       0.737 -0.347 -0.580  0.000  0.000
     occupation matrix ns (before diag.):
       0.988 -0.000 -0.000 -0.000  0.000
      -0.000  0.977 -0.000  0.000  0.000
      -0.000 -0.000  0.977  0.000  0.000
      -0.000  0.000  0.000  0.988 -0.000
       0.000  0.000  0.000 -0.000  0.977
     SPIN  2
     eigenvalues:
       0.551  0.551  0.551  0.940  0.940
     eigenvectors (columns):
      -0.000  0.000  0.000 -0.305  0.952
      -0.275  0.955  0.108 -0.000 -0.000
      -0.620 -0.090 -0.779 -0.000 -0.000
       0.000 -0.000 -0.000 -0.952 -0.305
       0.735  0.281 -0.617  0.000  0.000
     occupation matrix ns (before diag.):
       0.940 -0.000 -0.000 -0.000  0.000
      -0.000  0.551 -0.000  0.000  0.000
      -0.000 -0.000  0.551  0.000  0.000
      -0.000  0.000  0.000  0.940 -0.000
       0.000  0.000  0.000 -0.000  0.551
     ------------------------ ATOM    2 ------------------------
     Tr[ns(  2)] (up, down, total) =   3.53525  4.90697  8.44222
     Atomic magnetic moment for atom   2 =  -1.37173
     SPIN  1
     eigenvalues:
       0.552  0.552  0.552  0.940  0.940
     eigenvectors (columns):
      -0.000  0.000 -0.000  0.121 -0.993
      -0.252 -0.585 -0.771  0.000  0.000
      -0.608 -0.524  0.597  0.000  0.000
       0.000 -0.000  0.000  0.993  0.121
       0.753 -0.618  0.224 -0.000 -0.000
     occupation matrix ns (before diag.):
       0.940 -0.000 -0.000 -0.000  0.000
      -0.000  0.552 -0.000  0.000  0.000
      -0.000 -0.000  0.552  0.000  0.000
      -0.000  0.000  0.000  0.940 -0.000
       0.000  0.000  0.000 -0.000  0.552
     SPIN  2
     eigenvalues:
       0.977  0.977  0.977  0.988  0.988
     eigenvectors (columns):
      -0.000  0.000 -0.000  0.122 -0.993
      -0.266 -0.494 -0.828  0.000  0.000
      -0.611 -0.578  0.541  0.000  0.000
       0.000 -0.000  0.000  0.993  0.122
       0.746 -0.650  0.148 -0.000 -0.000
     occupation matrix ns (before diag.):
       0.988 -0.000 -0.000 -0.000  0.000
      -0.000  0.977 -0.000  0.000  0.000
      -0.000 -0.000  0.977  0.000  0.000
      -0.000  0.000  0.000  0.988 -0.000
       0.000  0.000  0.000 -0.000  0.977

     Number of occupied Hubbard levels =   16.8826

     total cpu time spent up to now is        0.6 secs

     total energy              =    -263.00451432 Ry
     estimated scf accuracy    <       0.87329600 Ry

     total magnetization       =    -0.00 Bohr mag/cell
     absolute magnetization    =     2.97 Bohr mag/cell

     iteration #  2     ecut=    55.00 Ry     beta= 0.30
     Davidson diagonalization with overlap
     ethr =  2.73E-03,  avg # of iterations =  2.1

     total cpu time spent up to now is        0.8 secs

     total energy              =    -263.17725727 Ry
     estimated scf accuracy    <       0.31331735 Ry

     total magnetization       =     0.00 Bohr mag/cell
     absolute magnetization    =     2.92 Bohr mag/cell

     iteration #  3     ecut=    55.00 Ry     beta= 0.30
     Davidson diagonalization with overlap
     ethr =  9.79E-04,  avg # of iterations =  7.2

     total cpu time spent up to now is        1.0 secs

     total energy              =    -263.37625413 Ry
     estimated scf accuracy    <       0.21508426 Ry

     total magnetization       =    -0.00 Bohr mag/cell
     absolute magnetization    =     2.25 Bohr mag/cell

     iteration #  4     ecut=    55.00 Ry     beta= 0.30
     Davidson diagonalization with overlap
     ethr =  6.72E-04,  avg # of iterations =  1.9

     total cpu time spent up to now is        1.2 secs

     total energy              =    -263.42967941 Ry
     estimated scf accuracy    <       0.26476904 Ry

     total magnetization       =     0.00 Bohr mag/cell
     absolute magnetization    =     2.22 Bohr mag/cell

     iteration #  5     ecut=    55.00 Ry     beta= 0.30
     Davidson diagonalization with overlap
     ethr =  6.72E-04,  avg # of iterations =  2.2

     total cpu time spent up to now is        1.3 secs

     total energy              =    -263.33066046 Ry
     estimated scf accuracy    <       0.20830936 Ry

     total magnetization       =    -0.00 Bohr mag/cell
     absolute magnetization    =     2.08 Bohr mag/cell

     iteration #  6     ecut=    55.00 Ry     beta= 0.30
     Davidson diagonalization with overlap
     ethr =  6.51E-04,  avg # of iterations =  4.6

     total cpu time spent up to now is        1.5 secs

     total energy              =    -263.36691676 Ry
     estimated scf accuracy    <       0.03182955 Ry

     total magnetization       =    -0.00 Bohr mag/cell
     absolute magnetization    =     2.01 Bohr mag/cell

     iteration #  7     ecut=    55.00 Ry     beta= 0.30
     Davidson diagonalization with overlap
     ethr =  9.95E-05,  avg # of iterations =  8.5

     total cpu time spent up to now is        1.7 secs

     total energy              =    -263.41867293 Ry
     estimated scf accuracy    <       0.13096998 Ry

     total magnetization       =    -0.00 Bohr mag/cell
     absolute magnetization    =     1.93 Bohr mag/cell

     iteration #  8     ecut=    55.00 Ry     beta= 0.30
     Davidson diagonalization with overlap
     ethr =  9.95E-05,  avg # of iterations =  1.1

     total cpu time spent up to now is        1.9 secs

     total energy              =    -263.35159128 Ry
     estimated scf accuracy    <       0.15341670 Ry

     total magnetization       =    -0.00 Bohr mag/cell
     absolute magnetization    =     1.94 Bohr mag/cell

     iteration #  9     ecut=    55.00 Ry     beta= 0.30
     Davidson diagonalization with overlap
     ethr =  9.95E-05,  avg # of iterations =  7.1

     total cpu time spent up to now is        2.1 secs

     total energy              =    -263.37873723 Ry
     estimated scf accuracy    <       0.00555612 Ry

     total magnetization       =     0.00 Bohr mag/cell
     absolute magnetization    =     1.83 Bohr mag/cell

     iteration # 10     ecut=    55.00 Ry     beta= 0.30
     Davidson diagonalization with overlap
     ethr =  1.74E-05,  avg # of iterations =  6.8

     total cpu time spent up to now is        2.3 secs

     total energy              =    -263.38222257 Ry
     estimated scf accuracy    <       0.01184020 Ry

     total magnetization       =    -0.00 Bohr mag/cell
     absolute magnetization    =     1.74 Bohr mag/cell

     iteration # 11     ecut=    55.00 Ry     beta= 0.30
     Davidson diagonalization with overlap
     ethr =  1.74E-05,  avg # of iterations =  1.1

     total cpu time spent up to now is        2.5 secs

     total energy              =    -263.38339549 Ry
     estimated scf accuracy    <       0.01095212 Ry

     total magnetization       =    -0.00 Bohr mag/cell
     absolute magnetization    =     1.73 Bohr mag/cell

     iteration # 12     ecut=    55.00 Ry     beta= 0.30
     Davidson diagonalization with overlap
     ethr =  1.74E-05,  avg # of iterations =  1.6

     total cpu time spent up to now is        2.6 secs

     total energy              =    -263.38348009 Ry
     estimated scf accuracy    <       0.00982548 Ry

     total magnetization       =     0.00 Bohr mag/cell
     absolute magnetization    =     1.72 Bohr mag/cell

     iteration # 13     ecut=    55.00 Ry     beta= 0.30
     Davidson diagonalization with overlap
     ethr =  1.74E-05,  avg # of iterations =  3.2

     total cpu time spent up to now is        2.7 secs

     total energy              =    -263.38278429 Ry
     estimated scf accuracy    <       0.00717629 Ry

     total magnetization       =     0.00 Bohr mag/cell
     absolute magnetization    =     1.66 Bohr mag/cell

     iteration # 14     ecut=    55.00 Ry     beta= 0.30
     Davidson diagonalization with overlap
     ethr =  1.74E-05,  avg # of iterations =  1.8

     total cpu time spent up to now is        2.9 secs

     total energy              =    -263.38352331 Ry
     estimated scf accuracy    <       0.00328932 Ry

     total magnetization       =    -0.00 Bohr mag/cell
     absolute magnetization    =     1.65 Bohr mag/cell

     iteration # 15     ecut=    55.00 Ry     beta= 0.30
     Davidson diagonalization with overlap
     ethr =  1.03E-05,  avg # of iterations =  1.9

     total cpu time spent up to now is        3.0 secs

     total energy              =    -263.38381682 Ry
     estimated scf accuracy    <       0.00378567 Ry

     total magnetization       =     0.00 Bohr mag/cell
     absolute magnetization    =     1.64 Bohr mag/cell

     iteration # 16     ecut=    55.00 Ry     beta= 0.30
     Davidson diagonalization with overlap
     ethr =  1.03E-05,  avg # of iterations =  1.4

     total cpu time spent up to now is        3.2 secs

     total energy              =    -263.38366379 Ry
     estimated scf accuracy    <       0.00489037 Ry

     total magnetization       =     0.00 Bohr mag/cell
     absolute magnetization    =     1.63 Bohr mag/cell

     iteration # 17     ecut=    55.00 Ry     beta= 0.30
     Davidson diagonalization with overlap
     ethr =  1.03E-05,  avg # of iterations =  1.6

     total cpu time spent up to now is        3.3 secs

     total energy              =    -263.38421041 Ry
     estimated scf accuracy    <       0.00356340 Ry

     total magnetization       =     0.00 Bohr mag/cell
     absolute magnetization    =     1.63 Bohr mag/cell

     iteration # 18     ecut=    55.00 Ry     beta= 0.30
     Davidson diagonalization with overlap
     ethr =  1.03E-05,  avg # of iterations =  1.6

     total cpu time spent up to now is        3.4 secs

     total energy              =    -263.38159930 Ry
     estimated scf accuracy    <       0.00610245 Ry

     total magnetization       =    -0.00 Bohr mag/cell
     absolute magnetization    =     1.62 Bohr mag/cell

     iteration # 19     ecut=    55.00 Ry     beta= 0.30
     Davidson diagonalization with overlap
     ethr =  1.03E-05,  avg # of iterations =  7.2

     total cpu time spent up to now is        3.7 secs

     total energy              =    -263.38424996 Ry
     estimated scf accuracy    <       0.00135548 Ry

     total magnetization       =    -0.00 Bohr mag/cell
     absolute magnetization    =     1.54 Bohr mag/cell

     iteration # 20     ecut=    55.00 Ry     beta= 0.30
     Davidson diagonalization with overlap
     ethr =  4.24E-06,  avg # of iterations =  2.5

     total cpu time spent up to now is        3.8 secs

     total energy              =    -263.38438169 Ry
     estimated scf accuracy    <       0.00073263 Ry

     total magnetization       =    -0.00 Bohr mag/cell
     absolute magnetization    =     1.52 Bohr mag/cell

     iteration # 21     ecut=    55.00 Ry     beta= 0.30
     Davidson diagonalization with overlap
     ethr =  2.29E-06,  avg # of iterations =  2.6

     total cpu time spent up to now is        4.0 secs

     total energy              =    -263.38492859 Ry
     estimated scf accuracy    <       0.00056051 Ry

     total magnetization       =    -0.00 Bohr mag/cell
     absolute magnetization    =     1.52 Bohr mag/cell

     iteration # 22     ecut=    55.00 Ry     beta= 0.30
     Davidson diagonalization with overlap
     ethr =  1.75E-06,  avg # of iterations =  6.4

     total cpu time spent up to now is        4.2 secs

     total energy              =    -263.38461702 Ry
     estimated scf accuracy    <       0.00316786 Ry

     total magnetization       =    -0.00 Bohr mag/cell
     absolute magnetization    =     1.52 Bohr mag/cell

     iteration # 23     ecut=    55.00 Ry     beta= 0.30
     Davidson diagonalization with overlap
     ethr =  1.75E-06,  avg # of iterations =  3.2

     total cpu time spent up to now is        4.3 secs

     total energy              =    -263.38450956 Ry
     estimated scf accuracy    <       0.00162945 Ry

     total magnetization       =    -0.00 Bohr mag/cell
     absolute magnetization    =     1.51 Bohr mag/cell

     iteration # 24     ecut=    55.00 Ry     beta= 0.30
     Davidson diagonalization with overlap
     ethr =  1.75E-06,  avg # of iterations =  2.9

     total cpu time spent up to now is        4.5 secs

     total energy              =    -263.38432871 Ry
     estimated scf accuracy    <       0.00070842 Ry

     total magnetization       =    -0.00 Bohr mag/cell
     absolute magnetization    =     1.49 Bohr mag/cell

     iteration # 25     ecut=    55.00 Ry     beta= 0.30
     Davidson diagonalization with overlap
     ethr =  1.75E-06,  avg # of iterations =  4.6

     total cpu time spent up to now is        4.7 secs

     total energy              =    -263.38464681 Ry
     estimated scf accuracy    <       0.00033423 Ry

     total magnetization       =     0.00 Bohr mag/cell
     absolute magnetization    =     1.49 Bohr mag/cell

     iteration # 26     ecut=    55.00 Ry     beta= 0.30
     Davidson diagonalization with overlap
     ethr =  1.04E-06,  avg # of iterations =  4.2

     total cpu time spent up to now is        4.8 secs

     total energy              =    -263.38466505 Ry
     estimated scf accuracy    <       0.00042770 Ry

     total magnetization       =     0.00 Bohr mag/cell
     absolute magnetization    =     1.47 Bohr mag/cell

     iteration # 27     ecut=    55.00 Ry     beta= 0.30
     Davidson diagonalization with overlap
     ethr =  1.04E-06,  avg # of iterations =  7.9

     total cpu time spent up to now is        5.0 secs

     total energy              =    -263.38493453 Ry
     estimated scf accuracy    <       0.00007735 Ry

     total magnetization       =    -0.00 Bohr mag/cell
     absolute magnetization    =     1.40 Bohr mag/cell

     iteration # 28     ecut=    55.00 Ry     beta= 0.30
     Davidson diagonalization with overlap
     ethr =  2.42E-07,  avg # of iterations =  9.8

     total cpu time spent up to now is        5.3 secs

     total energy              =    -263.38496082 Ry
     estimated scf accuracy    <       0.00014393 Ry

     total magnetization       =    -0.00 Bohr mag/cell
     absolute magnetization    =     1.36 Bohr mag/cell

     iteration # 29     ecut=    55.00 Ry     beta= 0.30
     Davidson diagonalization with overlap
     ethr =  2.42E-07,  avg # of iterations =  8.1

     total cpu time spent up to now is        5.4 secs

     total energy              =    -263.38498589 Ry
     estimated scf accuracy    <       0.00007472 Ry

     total magnetization       =     0.00 Bohr mag/cell
     absolute magnetization    =     1.33 Bohr mag/cell

     iteration # 30     ecut=    55.00 Ry     beta= 0.30
     Davidson diagonalization with overlap
     ethr =  2.34E-07,  avg # of iterations =  4.3

     total cpu time spent up to now is        5.6 secs

     total energy              =    -263.38500495 Ry
     estimated scf accuracy    <       0.00001451 Ry

     total magnetization       =     0.00 Bohr mag/cell
     absolute magnetization    =     1.33 Bohr mag/cell

     iteration # 31     ecut=    55.00 Ry     beta= 0.30
     Davidson diagonalization with overlap
     ethr =  4.53E-08,  avg # of iterations =  7.1

     total cpu time spent up to now is        5.8 secs

     total energy              =    -263.38501346 Ry
     estimated scf accuracy    <       0.00002450 Ry

     total magnetization       =     0.00 Bohr mag/cell
     absolute magnetization    =     1.33 Bohr mag/cell

     iteration # 32     ecut=    55.00 Ry     beta= 0.30
     Davidson diagonalization with overlap
     ethr =  4.53E-08,  avg # of iterations =  2.4

     total cpu time spent up to now is        6.0 secs

     total energy              =    -263.38501343 Ry
     estimated scf accuracy    <       0.00000763 Ry

     total magnetization       =     0.00 Bohr mag/cell
     absolute magnetization    =     1.32 Bohr mag/cell

     iteration # 33     ecut=    55.00 Ry     beta= 0.30
     Davidson diagonalization with overlap
     ethr =  2.38E-08,  avg # of iterations =  4.8

     total cpu time spent up to now is        6.2 secs

     total energy              =    -263.38501456 Ry
     estimated scf accuracy    <       0.00000139 Ry

     total magnetization       =    -0.00 Bohr mag/cell
     absolute magnetization    =     1.32 Bohr mag/cell

     iteration # 34     ecut=    55.00 Ry     beta= 0.30
     Davidson diagonalization with overlap
     ethr =  4.35E-09,  avg # of iterations =  6.4

     total cpu time spent up to now is        6.4 secs

     total energy              =    -263.38501570 Ry
     estimated scf accuracy    <       0.00000120 Ry

     total magnetization       =    -0.00 Bohr mag/cell
     absolute magnetization    =     1.33 Bohr mag/cell

     iteration # 35     ecut=    55.00 Ry     beta= 0.30
     Davidson diagonalization with overlap
     ethr =  3.76E-09,  avg # of iterations =  9.4

     total cpu time spent up to now is        6.6 secs

     total energy              =    -263.38501661 Ry
     estimated scf accuracy    <       0.00000121 Ry

     total magnetization       =    -0.00 Bohr mag/cell
     absolute magnetization    =     1.32 Bohr mag/cell

     iteration # 36     ecut=    55.00 Ry     beta= 0.30
     Davidson diagonalization with overlap
     ethr =  3.76E-09,  avg # of iterations =  1.2

     total cpu time spent up to now is        6.7 secs

     total energy              =    -263.38501634 Ry
     estimated scf accuracy    <       0.00000079 Ry

     total magnetization       =     0.00 Bohr mag/cell
     absolute magnetization    =     1.32 Bohr mag/cell

     iteration # 37     ecut=    55.00 Ry     beta= 0.30
     Davidson diagonalization with overlap
     ethr =  2.46E-09,  avg # of iterations =  7.0

     total cpu time spent up to now is        6.9 secs

     total energy              =    -263.38501671 Ry
     estimated scf accuracy    <       0.00000001 Ry

     total magnetization       =    -0.00 Bohr mag/cell
     absolute magnetization    =     1.32 Bohr mag/cell

     iteration # 38     ecut=    55.00 Ry     beta= 0.30
     Davidson diagonalization with overlap
     c_bands:  1 eigenvalues not converged
     c_bands:  3 eigenvalues not converged
     c_bands:  1 eigenvalues not converged
     c_bands:  5 eigenvalues not converged
     c_bands:  1 eigenvalues not converged
     ethr =  3.71E-11,  avg # of iterations = 17.6

     total cpu time spent up to now is        7.3 secs

     total energy              =    -263.38501672 Ry
     estimated scf accuracy    <       0.00000022 Ry

     total magnetization       =    -0.00 Bohr mag/cell
     absolute magnetization    =     1.32 Bohr mag/cell

     iteration # 39     ecut=    55.00 Ry     beta= 0.30
     Davidson diagonalization with overlap
     c_bands:  1 eigenvalues not converged
     ethr =  3.71E-11,  avg # of iterations = 15.1

     total cpu time spent up to now is        7.7 secs

     total energy              =    -263.38501679 Ry
     estimated scf accuracy    <       0.00000010 Ry

     total magnetization       =    -0.00 Bohr mag/cell
     absolute magnetization    =     1.32 Bohr mag/cell

     iteration # 40     ecut=    55.00 Ry     beta= 0.30
     Davidson diagonalization with overlap
     ethr =  3.71E-11,  avg # of iterations = 10.4

     total cpu time spent up to now is        7.9 secs

     total energy              =    -263.38501664 Ry
     estimated scf accuracy    <       0.00000031 Ry

     total magnetization       =    -0.00 Bohr mag/cell
     absolute magnetization    =     1.32 Bohr mag/cell

     iteration # 41     ecut=    55.00 Ry     beta= 0.30
     Davidson diagonalization with overlap
     c_bands:  2 eigenvalues not converged
     c_bands:  4 eigenvalues not converged
     c_bands:  1 eigenvalues not converged
     ethr =  3.71E-11,  avg # of iterations = 15.8

     total cpu time spent up to now is        8.3 secs

     total energy              =    -263.38501682 Ry
     estimated scf accuracy    <       0.00000001 Ry

     total magnetization       =     0.00 Bohr mag/cell
     absolute magnetization    =     1.32 Bohr mag/cell

     iteration # 42     ecut=    55.00 Ry     beta= 0.30
     Davidson diagonalization with overlap
     ethr =  3.31E-11,  avg # of iterations =  7.7

     total cpu time spent up to now is        8.4 secs

     total energy              =    -263.38501683 Ry
     estimated scf accuracy    <          4.4E-09 Ry

     total magnetization       =    -0.00 Bohr mag/cell
     absolute magnetization    =     1.32 Bohr mag/cell

     iteration # 43     ecut=    55.00 Ry     beta= 0.30
     Davidson diagonalization with overlap
     ethr =  1.38E-11,  avg # of iterations =  5.1

     Magnetic moment per site  (integrated on atomic sphere of radius R)
     atom   1 (R=0.179)  charge=  7.5611  magn=  0.6018
     atom   2 (R=0.179)  charge=  7.5612  magn= -0.6018
     atom   3 (R=0.179)  charge=  5.4500  magn= -0.0000
     atom   4 (R=0.179)  charge=  5.4500  magn= -0.0000

     total cpu time spent up to now is        8.6 secs

     End of self-consistent calculation

     =================== HUBBARD OCCUPATIONS ===================
     ------------------------ ATOM    1 ------------------------
     Tr[ns(  1)] (up, down, total) =   4.62774  4.01878  8.64652
     Atomic magnetic moment for atom   1 =   0.60897
     SPIN  1
     eigenvalues:
       0.894  0.894  0.894  0.973  0.973
     eigenvectors (columns):
      -0.000 -0.000 -0.000 -0.244  0.970
      -0.261 -0.793 -0.550 -0.000 -0.000
      -0.602 -0.311  0.735 -0.000 -0.000
       0.000  0.000  0.000 -0.970 -0.244
       0.754 -0.523  0.396  0.000  0.000
     occupation matrix ns (before diag.):
       0.973 -0.000 -0.000 -0.000  0.000
      -0.000  0.894 -0.000  0.000  0.000
      -0.000 -0.000  0.894  0.000  0.000
      -0.000  0.000  0.000  0.973 -0.000
       0.000  0.000  0.000 -0.000  0.894
     SPIN  2
     eigenvalues:
       0.700  0.700  0.700  0.959  0.959
     eigenvectors (columns):
      -0.000 -0.000 -0.000 -0.605  0.796
      -0.257 -0.846 -0.468 -0.000 -0.000
      -0.578 -0.253  0.775 -0.000 -0.000
       0.000  0.000  0.000 -0.796 -0.605
       0.774 -0.470  0.424  0.000  0.000
     occupation matrix ns (before diag.):
       0.959 -0.000 -0.000 -0.000  0.000
      -0.000  0.700 -0.000  0.000  0.000
      -0.000 -0.000  0.700  0.000  0.000
      -0.000  0.000  0.000  0.959 -0.000
       0.000  0.000  0.000 -0.000  0.700
     ------------------------ ATOM    2 ------------------------
     Tr[ns(  2)] (up, down, total) =   4.01879  4.62775  8.64655
     Atomic magnetic moment for atom   2 =  -0.60896
     SPIN  1
     eigenvalues:
       0.700  0.700  0.700  0.959  0.959
     eigenvectors (columns):
      -0.000 -0.000  0.000 -0.388  0.922
      -0.253 -0.967  0.001 -0.000 -0.000
      -0.602  0.157 -0.783 -0.000 -0.000
       0.000  0.000 -0.000 -0.922 -0.388
       0.757 -0.199 -0.622  0.000  0.000
     occupation matrix ns (before diag.):
       0.959 -0.000 -0.000 -0.000  0.000
      -0.000  0.700 -0.000  0.000  0.000
      -0.000 -0.000  0.700  0.000  0.000
      -0.000  0.000  0.000  0.959 -0.000
       0.000  0.000  0.000 -0.000  0.700
     SPIN  2
     eigenvalues:
       0.894  0.894  0.894  0.973  0.973
     eigenvectors (columns):
      -0.000  0.000 -0.000  0.101 -0.995
      -0.269 -0.522 -0.809  0.000  0.000
      -0.620 -0.549  0.560  0.000  0.000
       0.000 -0.000  0.000  0.995  0.101
       0.737 -0.652  0.176 -0.000 -0.000
     occupation matrix ns (before diag.):
       0.973 -0.000 -0.000 -0.000  0.000
      -0.000  0.894 -0.000  0.000  0.000
      -0.000 -0.000  0.894  0.000  0.000
      -0.000  0.000  0.000  0.973 -0.000
       0.000  0.000  0.000 -0.000  0.894

     Number of occupied Hubbard levels =   17.2931

 ------ SPIN UP ------------


          k = 0.0000 0.0000 0.0000 (   869 PWs)   bands (ev):

    -0.3496   8.6701  13.2922  13.2922  13.2922  19.0749  19.0749  23.0468
    23.0468  23.0468  26.1144  26.1144  26.1144  27.2189  27.2189  30.7924

          k =-0.2500 0.2500-0.2500 (   854 PWs)   bands (ev):

     0.7947   6.1262  14.3151  14.3151  17.1126  18.4340  18.4340  20.1998
    22.8765  22.8765  25.4305  25.4305  26.4077  26.8715  26.8715  27.9984

          k = 0.5000-0.5000 0.5000 (   862 PWs)   bands (ev):

     3.2962   3.3609  16.4824  16.4824  16.8498  16.8498  18.9295  19.0662
    22.7864  22.7864  23.5095  23.5095  25.5673  26.9835  28.0177  28.0177

          k = 0.0000 0.5000 0.0000 (   849 PWs)   bands (ev):

     1.1695   5.7828  14.4901  14.4901  15.8087  18.4788  19.6583  21.0554
    21.0554  23.3901  24.3724  26.2380  26.8841  26.8841  27.1599  28.6571

          k = 0.7500-0.2500 0.7500 (   845 PWs)   bands (ev):

     3.0452   4.1895  13.7746  15.2943  15.9636  18.6041  20.4773  21.0576
    21.3233  22.0391  24.7885  25.0689  25.5722  26.5014  26.9419  28.0898

          k = 0.5000 0.0000 0.5000 (   847 PWs)   bands (ev):

     2.3184   4.6940  14.1118  16.0278  16.2309  17.2121  20.6288  21.2512
    21.3829  22.7838  24.4440  25.1684  25.3109  25.4408  27.2028  28.0472

          k = 0.0000-1.0000 0.0000 (   846 PWs)   bands (ev):

     3.4774   4.2621  11.7101  16.0959  16.0959  19.7857  19.7857  20.2978
    20.6419  24.2921  24.2921  24.8944  25.7043  26.9189  27.1015  27.1891

          k =-0.5000-1.0000 0.0000 (   848 PWs)   bands (ev):

     3.8479   3.8479  13.4838  13.5092  17.8780  17.8780  20.7476  21.0882
    21.1786  21.5215  25.1653  25.1653  26.6813  26.7250  28.0306  28.0522

 ------ SPIN DOWN ----------


          k = 0.0000 0.0000 0.0000 (   869 PWs)   bands (ev):

    -0.3497   8.6701  13.2922  13.2922  13.2922  19.0749  19.0749  23.0468
    23.0468  23.0468  26.1144  26.1144  26.1144  27.2189  27.2189  30.7924

          k =-0.2500 0.2500-0.2500 (   854 PWs)   bands (ev):

     0.7947   6.1262  14.3151  14.3151  17.1126  18.4340  18.4340  20.1998
    22.8765  22.8765  25.4305  25.4305  26.4077  26.8715  26.8715  27.9984

          k = 0.5000-0.5000 0.5000 (   862 PWs)   bands (ev):

     3.2962   3.3609  16.4824  16.4824  16.8498  16.8498  18.9295  19.0662
    22.7865  22.7865  23.5095  23.5095  25.5673  26.9835  28.0177  28.0177

          k = 0.0000 0.5000 0.0000 (   849 PWs)   bands (ev):

     1.1695   5.7827  14.4901  14.4901  15.8087  18.4788  19.6583  21.0554
    21.0554  23.3901  24.3724  26.2380  26.8841  26.8841  27.1599  28.6571

          k = 0.7500-0.2500 0.7500 (   845 PWs)   bands (ev):

     3.0452   4.1895  13.7746  15.2943  15.9636  18.6041  20.4773  21.0576
    21.3233  22.0391  24.7885  25.0689  25.5722  26.5014  26.9419  28.0898

          k = 0.5000 0.0000 0.5000 (   847 PWs)   bands (ev):

     2.3184   4.6940  14.1118  16.0278  16.2309  17.2121  20.6288  21.2512
    21.3829  22.7838  24.4440  25.1684  25.3109  25.4408  27.2028  28.0472

          k = 0.0000-1.0000 0.0000 (   846 PWs)   bands (ev):

     3.4774   4.2621  11.7101  16.0959  16.0959  19.7857  19.7857  20.2978
    20.6419  24.2921  24.2921  24.8944  25.7043  26.9189  27.1015  27.1891

          k =-0.5000-1.0000 0.0000 (   848 PWs)   bands (ev):

     3.8479   3.8479  13.4838  13.5091  17.8780  17.8780  20.7476  21.0882
    21.1786  21.5215  25.1653  25.1653  26.6813  26.7250  28.0306  28.0522

     highest occupied level (ev):    30.7924

!    total energy              =    -263.38501683 Ry
     estimated scf accuracy    <          4.2E-10 Ry

     The total energy is the sum of the following terms:
     one-electron contribution =      46.66031709 Ry
     hartree contribution      =      33.80567486 Ry
     xc contribution           =    -100.10069917 Ry
     ewald contribution        =    -244.10368284 Ry
     Hubbard energy            =       0.35337323 Ry

     total magnetization       =    -0.00 Bohr mag/cell
     absolute magnetization    =     1.32 Bohr mag/cell

     convergence has been achieved in  43 iterations


     Computing stress (Cartesian axis) and pressure

     stres_hub    :      0.22s CPU      0.23s WALL (       1 calls)
     dprojdepsilo :      0.20s CPU      0.21s WALL (     144 calls)
     dprojdeps1   :      0.01s CPU      0.01s WALL (     144 calls)
     dprojdeps2   :      0.13s CPU      0.13s WALL (     144 calls)
     dprojdeps3   :      0.06s CPU      0.07s WALL (     144 calls)
          total   stress  (Ry/bohr**3)                   (kbar)     P=     5703.04
   0.03876850   0.00000000   0.00000000         5703.04        0.00        0.00
   0.00000000   0.03876850  -0.00000000            0.00     5703.04       -0.00
   0.00000000  -0.00000000   0.03876850            0.00       -0.00     5703.04


     BFGS Geometry Optimization
     Energy error            =      9.7E+00 Ry
     Gradient error          =      0.0E+00 Ry/Bohr
     Cell gradient error     =      5.7E+03 kbar

     number of scf cycles    =   1
     number of bfgs steps    =   0

     enthalpy           new  =    -263.3850168320 Ry

     new trust radius        =       0.5000000000 bohr
     new conv_thr            =       0.0000000010 Ry

     new unit-cell volume =    226.68393 a.u.^3 (    33.59109 Ang^3 )
     density =      7.38467 g/cm^3

CELL_PARAMETERS (alat=  7.90000000)
  -0.612589884  -0.000000000   0.612589884
   0.000000000   0.612589884   0.612589884
  -0.612589884   0.612589884  -0.000000000

ATOMIC_POSITIONS (alat)
Ni1              0.0000000000        0.0000000000        0.0000000000    0   0   0
Ni2              0.6125898840        0.6125898840        0.6125898840    0   0   0
O                0.3062949420        0.3062949420        0.3062949420    0   0   0
O                0.9188848260        0.9188848260        0.9188848260    0   0   0



     Writing config-only to output data dir /Users/kirill/Documents/dft/volume/NiO_struct_opt_dft_U/out/NiO.save/ :
     XML data file
     NEW-OLD atomic charge density approx. for the potential
     New effective cutoffs (rho, wfc):  365.78   36.56

     Check: negative core charge=   -0.000001
     Generating pointlists ...

     Atomic wfc used for Hubbard projectors are orthogonalized


     total cpu time spent up to now is        9.0 secs

     Self-consistent Calculation

     iteration #  1     ecut=    55.00 Ry     beta= 0.30
     Davidson diagonalization with overlap
     c_bands:  1 eigenvalues not converged
     c_bands:  5 eigenvalues not converged
     c_bands:  2 eigenvalues not converged
     c_bands:  2 eigenvalues not converged
     c_bands:  1 eigenvalues not converged
     c_bands:  1 eigenvalues not converged
     c_bands:  5 eigenvalues not converged
     c_bands:  2 eigenvalues not converged
     c_bands:  1 eigenvalues not converged
     ethr =  1.00E-06,  avg # of iterations = 24.9

     =================== HUBBARD OCCUPATIONS ===================
     ------------------------ ATOM    1 ------------------------
     Tr[ns(  1)] (up, down, total) =   4.75380  4.00371  8.75751
     Atomic magnetic moment for atom   1 =   0.75008
     SPIN  1
     eigenvalues:
       0.932  0.932  0.932  0.979  0.979
     eigenvectors (columns):
      -0.000 -0.000 -0.000 -0.374  0.927
      -0.273 -0.879 -0.390 -0.000 -0.000
      -0.572 -0.178  0.801 -0.000 -0.000
       0.000  0.000  0.000 -0.927 -0.374
       0.774 -0.442  0.454  0.000  0.000
     occupation matrix ns (before diag.):
       0.979 -0.000 -0.000 -0.000  0.000
      -0.000  0.932 -0.000  0.000  0.000
      -0.000 -0.000  0.932  0.000  0.000
      -0.000  0.000  0.000  0.979 -0.000
       0.000  0.000  0.000 -0.000  0.932
     SPIN  2
     eigenvalues:
       0.689  0.689  0.689  0.968  0.968
     eigenvectors (columns):
      -0.000 -0.000  0.000 -0.376  0.927
      -0.273 -0.938  0.213 -0.000 -0.000
      -0.563 -0.024 -0.826 -0.000 -0.000
       0.000  0.000 -0.000 -0.927 -0.376
       0.780 -0.346 -0.521  0.000  0.000
     occupation matrix ns (before diag.):
       0.968 -0.000 -0.000 -0.000  0.000
      -0.000  0.689 -0.000  0.000  0.000
      -0.000 -0.000  0.689  0.000  0.000
      -0.000  0.000  0.000  0.968 -0.000
       0.000  0.000  0.000 -0.000  0.689
     ------------------------ ATOM    2 ------------------------
     Tr[ns(  2)] (up, down, total) =   4.00406  4.75388  8.75794
     Atomic magnetic moment for atom   2 =  -0.74982
     SPIN  1
     eigenvalues:
       0.689  0.689  0.689  0.968  0.968
     eigenvectors (columns):
      -0.000 -0.000 -0.000 -0.277  0.961
      -0.272 -0.844 -0.462 -0.000 -0.000
      -0.619 -0.214  0.756 -0.000 -0.000
       0.000  0.000  0.000 -0.961 -0.277
       0.737 -0.491  0.465  0.000  0.000
     occupation matrix ns (before diag.):
       0.968 -0.000 -0.000 -0.000  0.000
      -0.000  0.689 -0.000  0.000  0.000
      -0.000 -0.000  0.689  0.000  0.000
      -0.000  0.000  0.000  0.968 -0.000
       0.000  0.000  0.000 -0.000  0.689
     SPIN  2
     eigenvalues:
       0.932  0.932  0.932  0.979  0.979
     eigenvectors (columns):
      -0.000 -0.000 -0.000 -0.240  0.971
      -0.278 -0.910 -0.308 -0.000 -0.000
      -0.569 -0.102  0.816 -0.000 -0.000
       0.000  0.000  0.000 -0.971 -0.240
       0.774 -0.402  0.489  0.000  0.000
     occupation matrix ns (before diag.):
       0.979 -0.000 -0.000 -0.000  0.000
      -0.000  0.932 -0.000  0.000  0.000
      -0.000 -0.000  0.932  0.000  0.000
      -0.000  0.000  0.000  0.979 -0.000
       0.000  0.000  0.000 -0.000  0.932

     Number of occupied Hubbard levels =   17.5155

     total cpu time spent up to now is        9.8 secs

     total energy              =    -264.45185109 Ry
     estimated scf accuracy    <       0.14085024 Ry

     total magnetization       =    -0.00 Bohr mag/cell
     absolute magnetization    =     1.60 Bohr mag/cell

     iteration #  2     ecut=    55.00 Ry     beta= 0.30
     Davidson diagonalization with overlap
     ethr =  4.40E-04,  avg # of iterations =  5.9

     total cpu time spent up to now is       10.0 secs

     total energy              =    -264.49319715 Ry
     estimated scf accuracy    <       0.18905753 Ry

     total magnetization       =    -0.00 Bohr mag/cell
     absolute magnetization    =     2.58 Bohr mag/cell

     iteration #  3     ecut=    55.00 Ry     beta= 0.30
     Davidson diagonalization with overlap
     ethr =  4.40E-04,  avg # of iterations =  1.1

     total cpu time spent up to now is       10.1 secs

     total energy              =    -264.48917806 Ry
     estimated scf accuracy    <       0.10304490 Ry

     total magnetization       =    -0.00 Bohr mag/cell
     absolute magnetization    =     2.58 Bohr mag/cell

     iteration #  4     ecut=    55.00 Ry     beta= 0.30
     Davidson diagonalization with overlap
     ethr =  3.22E-04,  avg # of iterations =  5.2

     total cpu time spent up to now is       10.3 secs

     total energy              =    -264.51083717 Ry
     estimated scf accuracy    <       0.01616407 Ry

     total magnetization       =    -0.00 Bohr mag/cell
     absolute magnetization    =     2.43 Bohr mag/cell

     iteration #  5     ecut=    55.00 Ry     beta= 0.30
     Davidson diagonalization with overlap
     ethr =  5.05E-05,  avg # of iterations =  8.4

     total cpu time spent up to now is       10.5 secs

     total energy              =    -264.51528706 Ry
     estimated scf accuracy    <       0.07384889 Ry

     total magnetization       =     0.00 Bohr mag/cell
     absolute magnetization    =     2.87 Bohr mag/cell

     iteration #  6     ecut=    55.00 Ry     beta= 0.30
     Davidson diagonalization with overlap
     ethr =  5.05E-05,  avg # of iterations =  6.9

     total cpu time spent up to now is       10.7 secs

     total energy              =    -264.52377171 Ry
     estimated scf accuracy    <       0.00062370 Ry

     total magnetization       =    -0.00 Bohr mag/cell
     absolute magnetization    =     2.79 Bohr mag/cell

     iteration #  7     ecut=    55.00 Ry     beta= 0.30
     Davidson diagonalization with overlap
     ethr =  1.95E-06,  avg # of iterations =  8.4

     total cpu time spent up to now is       10.9 secs

     total energy              =    -264.52527388 Ry
     estimated scf accuracy    <       0.00264324 Ry

     total magnetization       =    -0.00 Bohr mag/cell
     absolute magnetization    =     2.77 Bohr mag/cell

     iteration #  8     ecut=    55.00 Ry     beta= 0.30
     Davidson diagonalization with overlap
     ethr =  1.95E-06,  avg # of iterations =  1.1

     total cpu time spent up to now is       11.1 secs

     total energy              =    -264.52405295 Ry
     estimated scf accuracy    <       0.00266640 Ry

     total magnetization       =     0.00 Bohr mag/cell
     absolute magnetization    =     2.77 Bohr mag/cell

     iteration #  9     ecut=    55.00 Ry     beta= 0.30
     Davidson diagonalization with overlap
     ethr =  1.95E-06,  avg # of iterations =  9.4

     total cpu time spent up to now is       11.3 secs

     total energy              =    -264.52462199 Ry
     estimated scf accuracy    <       0.00166695 Ry

     total magnetization       =    -0.00 Bohr mag/cell
     absolute magnetization    =     2.82 Bohr mag/cell

     iteration # 10     ecut=    55.00 Ry     beta= 0.30
     Davidson diagonalization with overlap
     ethr =  1.95E-06,  avg # of iterations =  7.2

     total cpu time spent up to now is       11.5 secs

     total energy              =    -264.52560407 Ry
     estimated scf accuracy    <       0.00144248 Ry

     total magnetization       =    -0.00 Bohr mag/cell
     absolute magnetization    =     2.79 Bohr mag/cell

     iteration # 11     ecut=    55.00 Ry     beta= 0.30
     Davidson diagonalization with overlap
     c_bands:  4 eigenvalues not converged
     c_bands:  1 eigenvalues not converged
     c_bands:  1 eigenvalues not converged
     c_bands:  2 eigenvalues not converged
     ethr =  1.95E-06,  avg # of iterations = 17.5

     total cpu time spent up to now is       12.0 secs

     total energy              =    -264.51931074 Ry
     estimated scf accuracy    <       0.10460944 Ry

     total magnetization       =    -0.00 Bohr mag/cell
     absolute magnetization    =     3.09 Bohr mag/cell

     iteration # 12     ecut=    55.00 Ry     beta= 0.30
     Davidson diagonalization with overlap
     c_bands:  1 eigenvalues not converged
     c_bands:  1 eigenvalues not converged
     ethr =  1.95E-06,  avg # of iterations = 15.8

     total cpu time spent up to now is       12.4 secs

     total energy              =    -264.52502613 Ry
     estimated scf accuracy    <       0.00831826 Ry

     total magnetization       =    -0.00 Bohr mag/cell
     absolute magnetization    =     2.94 Bohr mag/cell

     iteration # 13     ecut=    55.00 Ry     beta= 0.30
     Davidson diagonalization with overlap
     ethr =  1.95E-06,  avg # of iterations =  4.8

     total cpu time spent up to now is       12.5 secs

     total energy              =    -264.52391268 Ry
     estimated scf accuracy    <       0.00412549 Ry

     total magnetization       =     0.00 Bohr mag/cell
     absolute magnetization    =     2.91 Bohr mag/cell

     iteration # 14     ecut=    55.00 Ry     beta= 0.30
     Davidson diagonalization with overlap
     ethr =  1.95E-06,  avg # of iterations = 11.4

     total cpu time spent up to now is       12.8 secs

     total energy              =    -264.52465829 Ry
     estimated scf accuracy    <       0.00066158 Ry

     total magnetization       =    -0.00 Bohr mag/cell
     absolute magnetization    =     2.83 Bohr mag/cell

     iteration # 15     ecut=    55.00 Ry     beta= 0.30
     Davidson diagonalization with overlap
     ethr =  1.95E-06,  avg # of iterations =  8.1

     total cpu time spent up to now is       13.0 secs

     total energy              =    -264.52467843 Ry
     estimated scf accuracy    <       0.00115713 Ry

     total magnetization       =     0.00 Bohr mag/cell
     absolute magnetization    =     2.88 Bohr mag/cell

     iteration # 16     ecut=    55.00 Ry     beta= 0.30
     Davidson diagonalization with overlap
     ethr =  1.95E-06,  avg # of iterations =  6.7

     total cpu time spent up to now is       13.3 secs

     total energy              =    -264.52491466 Ry
     estimated scf accuracy    <       0.00015849 Ry

     total magnetization       =     0.00 Bohr mag/cell
     absolute magnetization    =     2.84 Bohr mag/cell

     iteration # 17     ecut=    55.00 Ry     beta= 0.30
     Davidson diagonalization with overlap
     ethr =  4.95E-07,  avg # of iterations =  7.2

     total cpu time spent up to now is       13.5 secs

     total energy              =    -264.52532470 Ry
     estimated scf accuracy    <       0.00024405 Ry

     total magnetization       =     0.00 Bohr mag/cell
     absolute magnetization    =     2.86 Bohr mag/cell

     iteration # 18     ecut=    55.00 Ry     beta= 0.30
     Davidson diagonalization with overlap
     ethr =  4.95E-07,  avg # of iterations = 11.1

     total cpu time spent up to now is       13.8 secs

     total energy              =    -264.52490424 Ry
     estimated scf accuracy    <       0.00520799 Ry

     total magnetization       =     0.00 Bohr mag/cell
     absolute magnetization    =     2.89 Bohr mag/cell

     iteration # 19     ecut=    55.00 Ry     beta= 0.30
     Davidson diagonalization with overlap
     ethr =  4.95E-07,  avg # of iterations =  7.6

     total cpu time spent up to now is       14.0 secs

     total energy              =    -264.52489523 Ry
     estimated scf accuracy    <       0.00124987 Ry

     total magnetization       =     0.00 Bohr mag/cell
     absolute magnetization    =     2.87 Bohr mag/cell

     iteration # 20     ecut=    55.00 Ry     beta= 0.30
     Davidson diagonalization with overlap
     ethr =  4.95E-07,  avg # of iterations =  6.6

     total cpu time spent up to now is       14.2 secs

     total energy              =    -264.52489425 Ry
     estimated scf accuracy    <       0.00016320 Ry

     total magnetization       =    -0.00 Bohr mag/cell
     absolute magnetization    =     2.85 Bohr mag/cell

     iteration # 21     ecut=    55.00 Ry     beta= 0.30
     Davidson diagonalization with overlap
     ethr =  4.95E-07,  avg # of iterations =  9.0

     total cpu time spent up to now is       14.5 secs

     total energy              =    -264.52495937 Ry
     estimated scf accuracy    <       0.00053617 Ry

     total magnetization       =     0.00 Bohr mag/cell
     absolute magnetization    =     2.83 Bohr mag/cell

     iteration # 22     ecut=    55.00 Ry     beta= 0.30
     Davidson diagonalization with overlap
     ethr =  4.95E-07,  avg # of iterations =  2.7

     total cpu time spent up to now is       14.6 secs

     total energy              =    -264.52499071 Ry
     estimated scf accuracy    <       0.00020061 Ry

     total magnetization       =    -0.00 Bohr mag/cell
     absolute magnetization    =     2.83 Bohr mag/cell

     iteration # 23     ecut=    55.00 Ry     beta= 0.30
     Davidson diagonalization with overlap
     ethr =  4.95E-07,  avg # of iterations =  1.0

     total cpu time spent up to now is       14.8 secs

     total energy              =    -264.52498756 Ry
     estimated scf accuracy    <       0.00021006 Ry

     total magnetization       =     0.00 Bohr mag/cell
     absolute magnetization    =     2.83 Bohr mag/cell

     iteration # 24     ecut=    55.00 Ry     beta= 0.30
     Davidson diagonalization with overlap
     ethr =  4.95E-07,  avg # of iterations =  1.0

     total cpu time spent up to now is       14.9 secs

     total energy              =    -264.52496961 Ry
     estimated scf accuracy    <       0.00017561 Ry

     total magnetization       =     0.00 Bohr mag/cell
     absolute magnetization    =     2.83 Bohr mag/cell

     iteration # 25     ecut=    55.00 Ry     beta= 0.30
     Davidson diagonalization with overlap
     ethr =  4.95E-07,  avg # of iterations =  1.1

     total cpu time spent up to now is       15.0 secs

     total energy              =    -264.52495622 Ry
     estimated scf accuracy    <       0.00010645 Ry

     total magnetization       =     0.00 Bohr mag/cell
     absolute magnetization    =     2.83 Bohr mag/cell

     iteration # 26     ecut=    55.00 Ry     beta= 0.30
     Davidson diagonalization with overlap
     ethr =  3.33E-07,  avg # of iterations =  5.4

     total cpu time spent up to now is       15.2 secs

     total energy              =    -264.52497775 Ry
     estimated scf accuracy    <       0.00000525 Ry

     total magnetization       =    -0.00 Bohr mag/cell
     absolute magnetization    =     2.84 Bohr mag/cell

     iteration # 27     ecut=    55.00 Ry     beta= 0.30
     Davidson diagonalization with overlap
     ethr =  1.64E-08,  avg # of iterations =  9.6

     total cpu time spent up to now is       15.5 secs

     total energy              =    -264.52499122 Ry
     estimated scf accuracy    <       0.00001542 Ry

     total magnetization       =    -0.00 Bohr mag/cell
     absolute magnetization    =     2.84 Bohr mag/cell

     iteration # 28     ecut=    55.00 Ry     beta= 0.30
     Davidson diagonalization with overlap
     ethr =  1.64E-08,  avg # of iterations =  1.1

     total cpu time spent up to now is       15.6 secs

     total energy              =    -264.52498731 Ry
     estimated scf accuracy    <       0.00001552 Ry

     total magnetization       =    -0.00 Bohr mag/cell
     absolute magnetization    =     2.84 Bohr mag/cell

     iteration # 29     ecut=    55.00 Ry     beta= 0.30
     Davidson diagonalization with overlap
     ethr =  1.64E-08,  avg # of iterations =  4.8

     total cpu time spent up to now is       15.8 secs

     total energy              =    -264.52498940 Ry
     estimated scf accuracy    <       0.00000252 Ry

     total magnetization       =     0.00 Bohr mag/cell
     absolute magnetization    =     2.84 Bohr mag/cell

     iteration # 30     ecut=    55.00 Ry     beta= 0.30
     Davidson diagonalization with overlap
     ethr =  7.88E-09,  avg # of iterations =  1.5

     total cpu time spent up to now is       15.9 secs

     total energy              =    -264.52498911 Ry
     estimated scf accuracy    <       0.00000445 Ry

     total magnetization       =    -0.00 Bohr mag/cell
     absolute magnetization    =     2.84 Bohr mag/cell

     iteration # 31     ecut=    55.00 Ry     beta= 0.30
     Davidson diagonalization with overlap
     ethr =  7.88E-09,  avg # of iterations =  1.0

     total cpu time spent up to now is       16.1 secs

     total energy              =    -264.52498934 Ry
     estimated scf accuracy    <       0.00000329 Ry

     total magnetization       =     0.00 Bohr mag/cell
     absolute magnetization    =     2.84 Bohr mag/cell

     iteration # 32     ecut=    55.00 Ry     beta= 0.30
     Davidson diagonalization with overlap
     ethr =  7.88E-09,  avg # of iterations =  1.0

     total cpu time spent up to now is       16.2 secs

     total energy              =    -264.52498905 Ry
     estimated scf accuracy    <       0.00000373 Ry

     total magnetization       =    -0.00 Bohr mag/cell
     absolute magnetization    =     2.84 Bohr mag/cell

     iteration # 33     ecut=    55.00 Ry     beta= 0.30
     Davidson diagonalization with overlap
     ethr =  7.88E-09,  avg # of iterations =  1.1

     total cpu time spent up to now is       16.4 secs

     total energy              =    -264.52498914 Ry
     estimated scf accuracy    <       0.00000282 Ry

     total magnetization       =     0.00 Bohr mag/cell
     absolute magnetization    =     2.84 Bohr mag/cell

     iteration # 34     ecut=    55.00 Ry     beta= 0.30
     Davidson diagonalization with overlap
     ethr =  7.88E-09,  avg # of iterations =  1.0

     total cpu time spent up to now is       16.5 secs

     total energy              =    -264.52498882 Ry
     estimated scf accuracy    <       0.00000270 Ry

     total magnetization       =    -0.00 Bohr mag/cell
     absolute magnetization    =     2.84 Bohr mag/cell

     iteration # 35     ecut=    55.00 Ry     beta= 0.30
     Davidson diagonalization with overlap
     ethr =  7.88E-09,  avg # of iterations =  1.0

     total cpu time spent up to now is       16.6 secs

     total energy              =    -264.52498872 Ry
     estimated scf accuracy    <       0.00000164 Ry

     total magnetization       =    -0.00 Bohr mag/cell
     absolute magnetization    =     2.84 Bohr mag/cell

     iteration # 36     ecut=    55.00 Ry     beta= 0.30
     Davidson diagonalization with overlap
     ethr =  5.12E-09,  avg # of iterations =  2.7

     total cpu time spent up to now is       16.8 secs

     total energy              =    -264.52498859 Ry
     estimated scf accuracy    <       0.00000074 Ry

     total magnetization       =     0.00 Bohr mag/cell
     absolute magnetization    =     2.84 Bohr mag/cell

     iteration # 37     ecut=    55.00 Ry     beta= 0.30
     Davidson diagonalization with overlap
     ethr =  2.30E-09,  avg # of iterations =  6.4

     total cpu time spent up to now is       17.0 secs

     total energy              =    -264.52498892 Ry
     estimated scf accuracy    <       0.00000020 Ry

     total magnetization       =     0.00 Bohr mag/cell
     absolute magnetization    =     2.84 Bohr mag/cell

     iteration # 38     ecut=    55.00 Ry     beta= 0.30
     Davidson diagonalization with overlap
     ethr =  6.22E-10,  avg # of iterations =  3.2

     total cpu time spent up to now is       17.2 secs

     total energy              =    -264.52498896 Ry
     estimated scf accuracy    <       0.00000023 Ry

     total magnetization       =    -0.00 Bohr mag/cell
     absolute magnetization    =     2.84 Bohr mag/cell

     iteration # 39     ecut=    55.00 Ry     beta= 0.30
     Davidson diagonalization with overlap
     ethr =  6.22E-10,  avg # of iterations =  1.0

     total cpu time spent up to now is       17.3 secs

     total energy              =    -264.52498895 Ry
     estimated scf accuracy    <       0.00000024 Ry

     total magnetization       =    -0.00 Bohr mag/cell
     absolute magnetization    =     2.84 Bohr mag/cell

     iteration # 40     ecut=    55.00 Ry     beta= 0.30
     Davidson diagonalization with overlap
     ethr =  6.22E-10,  avg # of iterations =  1.1

     total cpu time spent up to now is       17.4 secs

     total energy              =    -264.52498897 Ry
     estimated scf accuracy    <       0.00000022 Ry

     total magnetization       =    -0.00 Bohr mag/cell
     absolute magnetization    =     2.84 Bohr mag/cell

     iteration # 41     ecut=    55.00 Ry     beta= 0.30
     Davidson diagonalization with overlap
     ethr =  6.22E-10,  avg # of iterations =  1.2

     total cpu time spent up to now is       17.6 secs

     total energy              =    -264.52498897 Ry
     estimated scf accuracy    <       0.00000028 Ry

     total magnetization       =    -0.00 Bohr mag/cell
     absolute magnetization    =     2.84 Bohr mag/cell

     iteration # 42     ecut=    55.00 Ry     beta= 0.30
     Davidson diagonalization with overlap
     ethr =  6.22E-10,  avg # of iterations =  1.0

     total cpu time spent up to now is       17.7 secs

     total energy              =    -264.52498896 Ry
     estimated scf accuracy    <       0.00000028 Ry

     total magnetization       =    -0.00 Bohr mag/cell
     absolute magnetization    =     2.84 Bohr mag/cell

     iteration # 43     ecut=    55.00 Ry     beta= 0.30
     Davidson diagonalization with overlap
     ethr =  6.22E-10,  avg # of iterations =  1.1

     total cpu time spent up to now is       17.9 secs

     total energy              =    -264.52498896 Ry
     estimated scf accuracy    <       0.00000024 Ry

     total magnetization       =    -0.00 Bohr mag/cell
     absolute magnetization    =     2.84 Bohr mag/cell

     iteration # 44     ecut=    55.00 Ry     beta= 0.30
     Davidson diagonalization with overlap
     ethr =  6.22E-10,  avg # of iterations =  1.0

     total cpu time spent up to now is       18.0 secs

     total energy              =    -264.52498894 Ry
     estimated scf accuracy    <       0.00000023 Ry

     total magnetization       =    -0.00 Bohr mag/cell
     absolute magnetization    =     2.84 Bohr mag/cell

     iteration # 45     ecut=    55.00 Ry     beta= 0.30
     Davidson diagonalization with overlap
     ethr =  6.22E-10,  avg # of iterations =  1.0

     total cpu time spent up to now is       18.1 secs

     total energy              =    -264.52498891 Ry
     estimated scf accuracy    <       0.00000018 Ry

     total magnetization       =     0.00 Bohr mag/cell
     absolute magnetization    =     2.84 Bohr mag/cell

     iteration # 46     ecut=    55.00 Ry     beta= 0.30
     Davidson diagonalization with overlap
     ethr =  5.63E-10,  avg # of iterations =  1.6

     total cpu time spent up to now is       18.3 secs

     total energy              =    -264.52498888 Ry
     estimated scf accuracy    <       0.00000006 Ry

     total magnetization       =     0.00 Bohr mag/cell
     absolute magnetization    =     2.84 Bohr mag/cell

     iteration # 47     ecut=    55.00 Ry     beta= 0.30
     Davidson diagonalization with overlap
     ethr =  1.82E-10,  avg # of iterations = 11.5

     total cpu time spent up to now is       18.6 secs

     total energy              =    -264.52498889 Ry
     estimated scf accuracy    <       0.00000063 Ry

     total magnetization       =     0.00 Bohr mag/cell
     absolute magnetization    =     2.84 Bohr mag/cell

     iteration # 48     ecut=    55.00 Ry     beta= 0.30
     Davidson diagonalization with overlap
     ethr =  1.82E-10,  avg # of iterations =  6.9

     total cpu time spent up to now is       18.8 secs

     total energy              =    -264.52498891 Ry
     estimated scf accuracy    <       0.00000007 Ry

     total magnetization       =     0.00 Bohr mag/cell
     absolute magnetization    =     2.84 Bohr mag/cell

     iteration # 49     ecut=    55.00 Ry     beta= 0.30
     Davidson diagonalization with overlap
     ethr =  1.82E-10,  avg # of iterations =  5.7

     total cpu time spent up to now is       19.0 secs

     total energy              =    -264.52498893 Ry
     estimated scf accuracy    <          2.1E-09 Ry

     total magnetization       =    -0.00 Bohr mag/cell
     absolute magnetization    =     2.84 Bohr mag/cell

     iteration # 50     ecut=    55.00 Ry     beta= 0.30
     Davidson diagonalization with overlap
     ethr =  6.72E-12,  avg # of iterations = 12.9

     total cpu time spent up to now is       19.3 secs

     total energy              =    -264.52498893 Ry
     estimated scf accuracy    <       0.00000002 Ry

     total magnetization       =    -0.00 Bohr mag/cell
     absolute magnetization    =     2.84 Bohr mag/cell

     iteration # 51     ecut=    55.00 Ry     beta= 0.30
     Davidson diagonalization with overlap
     ethr =  6.72E-12,  avg # of iterations =  8.4

     total cpu time spent up to now is       19.5 secs

     total energy              =    -264.52498893 Ry
     estimated scf accuracy    <          1.8E-09 Ry

     total magnetization       =    -0.00 Bohr mag/cell
     absolute magnetization    =     2.84 Bohr mag/cell

     iteration # 52     ecut=    55.00 Ry     beta= 0.30
     Davidson diagonalization with overlap
     ethr =  5.66E-12,  avg # of iterations =  1.5

     Magnetic moment per site  (integrated on atomic sphere of radius R)
     atom   1 (R=0.179)  charge=  7.1646  magn=  1.2772
     atom   2 (R=0.179)  charge=  7.1644  magn= -1.2771
     atom   3 (R=0.179)  charge=  4.8834  magn=  0.0000
     atom   4 (R=0.179)  charge=  4.8834  magn=  0.0000

     total cpu time spent up to now is       19.7 secs

     End of self-consistent calculation

     =================== HUBBARD OCCUPATIONS ===================
     ------------------------ ATOM    1 ------------------------
     Tr[ns(  1)] (up, down, total) =   4.91695  3.56882  8.48577
     Atomic magnetic moment for atom   1 =   1.34814
     SPIN  1
     eigenvalues:
       0.983  0.983  0.983  0.984  0.984
     eigenvectors (columns):
      -0.000 -0.000  0.000  0.155 -0.988
      -0.280 -0.943  0.182  0.000  0.000
      -0.598  0.024 -0.801  0.000  0.000
       0.000  0.000 -0.000  0.988  0.155
       0.751 -0.333 -0.571 -0.000 -0.000
     occupation matrix ns (before diag.):
       0.984 -0.000 -0.000 -0.000  0.000
      -0.000  0.983 -0.000  0.000  0.000
      -0.000 -0.000  0.983  0.000  0.000
      -0.000  0.000  0.000  0.984 -0.000
       0.000  0.000  0.000 -0.000  0.983
     SPIN  2
     eigenvalues:
       0.541  0.541  0.541  0.972  0.972
     eigenvectors (columns):
      -0.000 -0.000  0.000 -0.414  0.910
      -0.274 -0.954  0.119 -0.000 -0.000
      -0.617  0.080 -0.783 -0.000 -0.000
       0.000  0.000 -0.000 -0.910 -0.414
       0.737 -0.288 -0.611  0.000  0.000
     occupation matrix ns (before diag.):
       0.972 -0.000 -0.000 -0.000  0.000
      -0.000  0.541 -0.000  0.000  0.000
      -0.000 -0.000  0.541  0.000  0.000
      -0.000  0.000  0.000  0.972 -0.000
       0.000  0.000  0.000 -0.000  0.541
     ------------------------ ATOM    2 ------------------------
     Tr[ns(  2)] (up, down, total) =   3.56878  4.91695  8.48572
     Atomic magnetic moment for atom   2 =  -1.34817
     SPIN  1
     eigenvalues:
       0.541  0.541  0.541  0.972  0.972
     eigenvectors (columns):
      -0.000 -0.000 -0.000 -0.397  0.918
      -0.281 -0.851 -0.443 -0.000 -0.000
      -0.600 -0.204  0.773 -0.000 -0.000
       0.000  0.000  0.000 -0.918 -0.397
       0.749 -0.483  0.454  0.000  0.000
     occupation matrix ns (before diag.):
       0.972 -0.000 -0.000 -0.000  0.000
      -0.000  0.541 -0.000  0.000  0.000
      -0.000 -0.000  0.541  0.000  0.000
      -0.000  0.000  0.000  0.972 -0.000
       0.000  0.000  0.000 -0.000  0.541
     SPIN  2
     eigenvalues:
       0.983  0.983  0.983  0.984  0.984
     eigenvectors (columns):
      -0.000 -0.000  0.000 -0.417  0.909
      -0.270 -0.963  0.017 -0.000 -0.000
      -0.607  0.156 -0.779 -0.000 -0.000
       0.000  0.000 -0.000 -0.909 -0.417
       0.748 -0.221 -0.626  0.000  0.000
     occupation matrix ns (before diag.):
       0.984 -0.000 -0.000 -0.000  0.000
      -0.000  0.983 -0.000  0.000  0.000
      -0.000 -0.000  0.983  0.000  0.000
      -0.000  0.000  0.000  0.984 -0.000
       0.000  0.000  0.000 -0.000  0.983

     Number of occupied Hubbard levels =   16.9715

 ------ SPIN UP ------------


          k = 0.0000 0.0000 0.0000 (   869 PWs)   bands (ev):

    -7.7198  -4.3584   5.1874   5.1874   5.1874   7.4332   7.4332  10.1978
    10.1978  10.1978  10.3488  10.3488  10.3488  10.6136  10.6136  13.8318

          k =-0.2041 0.2041-0.2041 (   854 PWs)   bands (ev):

    -7.2113  -4.9312   5.6365   5.6365   6.3026   7.3545   7.3545   8.0699
     9.2830   9.2830  10.0142  10.2532  10.2532  10.9081  10.9081  12.7404

          k = 0.4081-0.4081 0.4081 (   862 PWs)   bands (ev):

    -6.0875  -6.0415   6.3066   6.3066   7.1863   7.2638   7.2638   7.3361
     8.4107   8.4107   8.8711   9.9353   9.9353  11.1465  11.1465  12.2987

          k =-0.0000 0.4081 0.0000 (   849 PWs)   bands (ev):

    -7.0751  -5.0083   5.6467   5.6467   5.8069   6.9335   7.6167   8.7084
     8.7084   8.9446   9.9417  10.5083  10.6027  11.0360  11.0360  13.1937

          k = 0.6122-0.2041 0.6122 (   845 PWs)   bands (ev):

    -6.2965  -5.6684   4.7735   5.8771   6.2871   7.5808   7.9447   8.0515
     8.3236   8.7271   9.7468  10.2757  10.5909  10.6959  10.8058  12.5624

          k = 0.4081 0.0000 0.4081 (   847 PWs)   bands (ev):

    -6.5472  -5.5017   5.2280   6.1240   6.4197   6.8960   7.9765   8.1585
     8.7082   8.8547   9.4606  10.2535  10.4356  10.5455  10.6471  12.5409

          k = 0.0000-0.8162-0.0000 (   846 PWs)   bands (ev):

    -6.2727  -5.5442   3.6700   6.3958   6.3958   7.6647   7.6647   7.8056
     7.9899   8.7842  10.4931  10.4931  10.5937  10.7198  11.2342  12.3585

          k =-0.4081-0.8162-0.0000 (   848 PWs)   bands (ev):

    -5.9264  -5.9264   4.7130   4.7628   7.2206   7.2206   7.7669   8.0636
     8.2923   9.5378   9.5378   9.9184  10.5517  10.6843  11.8939  12.4955

 ------ SPIN DOWN ----------


          k = 0.0000 0.0000 0.0000 (   869 PWs)   bands (ev):

    -7.7198  -4.3584   5.1874   5.1874   5.1874   7.4333   7.4333  10.1978
    10.1978  10.1978  10.3488  10.3488  10.3488  10.6136  10.6136  13.8317

          k =-0.2041 0.2041-0.2041 (   854 PWs)   bands (ev):

    -7.2113  -4.9312   5.6366   5.6366   6.3026   7.3545   7.3545   8.0699
     9.2830   9.2830  10.0142  10.2531  10.2531  10.9081  10.9081  12.7403

          k = 0.4081-0.4081 0.4081 (   862 PWs)   bands (ev):

    -6.0875  -6.0415   6.3066   6.3066   7.1864   7.2638   7.2638   7.3361
     8.4108   8.4108   8.8712   9.9352   9.9352  11.1465  11.1465  12.2986

          k =-0.0000 0.4081 0.0000 (   849 PWs)   bands (ev):

    -7.0751  -5.0083   5.6467   5.6467   5.8069   6.9335   7.6167   8.7084
     8.7084   8.9446   9.9416  10.5083  10.6027  11.0360  11.0360  13.1937

          k = 0.6122-0.2041 0.6122 (   845 PWs)   bands (ev):

    -6.2965  -5.6684   4.7735   5.8771   6.2871   7.5808   7.9447   8.0516
     8.3236   8.7271   9.7468  10.2757  10.5909  10.6959  10.8058  12.5623

          k = 0.4081 0.0000 0.4081 (   847 PWs)   bands (ev):

    -6.5472  -5.5017   5.2280   6.1240   6.4197   6.8960   7.9766   8.1586
     8.7082   8.8547   9.4606  10.2535  10.4355  10.5455  10.6470  12.5408

          k = 0.0000-0.8162-0.0000 (   846 PWs)   bands (ev):

    -6.2727  -5.5442   3.6700   6.3958   6.3958   7.6648   7.6648   7.8056
     7.9899   8.7842  10.4931  10.4931  10.5937  10.7198  11.2342  12.3584

          k =-0.4081-0.8162-0.0000 (   848 PWs)   bands (ev):

    -5.9264  -5.9264   4.7130   4.7628   7.2206   7.2206   7.7669   8.0636
     8.2923   9.5378   9.5378   9.9183  10.5517  10.6843  11.8939  12.4954

     highest occupied level (ev):    13.8318

!    total energy              =    -264.52498893 Ry
     estimated scf accuracy    <          9.9E-10 Ry

     The total energy is the sum of the following terms:
     one-electron contribution =     -17.61258966 Ry
     hartree contribution      =      49.37278906 Ry
     xc contribution           =     -97.34380247 Ry
     ewald contribution        =    -199.23907431 Ry
     Hubbard energy            =       0.29768844 Ry

     total magnetization       =    -0.00 Bohr mag/cell
     absolute magnetization    =     2.84 Bohr mag/cell

     convergence has been achieved in  52 iterations


     Computing stress (Cartesian axis) and pressure

     stres_hub    :      0.44s CPU      0.46s WALL (       2 calls)
     dprojdepsilo :      0.41s CPU      0.42s WALL (     288 calls)
     dprojdeps1   :      0.02s CPU      0.02s WALL (     288 calls)
     dprojdeps2   :      0.26s CPU      0.27s WALL (     288 calls)
     dprojdeps3   :      0.12s CPU      0.13s WALL (     288 calls)
          total   stress  (Ry/bohr**3)                   (kbar)     P=      -78.68
  -0.00053488   0.00000000   0.00000000          -78.68        0.00        0.00
  -0.00000000  -0.00053488  -0.00000000           -0.00      -78.68       -0.00
   0.00000000   0.00000000  -0.00053488            0.00        0.00      -78.68

     Energy error            =      1.1E+00 Ry
     Gradient error          =      0.0E+00 Ry/Bohr
     Cell gradient error     =      7.9E+01 kbar

     number of scf cycles    =   2
     number of bfgs steps    =   1

     enthalpy           old  =    -263.3850168320 Ry
     enthalpy           new  =    -264.5249889337 Ry

     CASE: enthalpy          _new < enthalpy          _old

     new trust radius        =       0.0112291670 bohr
     new conv_thr            =            1.0E-11 Ry

     new unit-cell volume =    224.15738 a.u.^3 (    33.21670 Ang^3 )
     density =      7.46791 g/cm^3

CELL_PARAMETERS (alat=  7.90000000)
  -0.610305459  -0.000000000   0.610305459
   0.000000000   0.610305459   0.610305459
  -0.610305459   0.610305459  -0.000000000

ATOMIC_POSITIONS (alat)
Ni1              0.0000000000        0.0000000000        0.0000000000    0   0   0
Ni2              0.6103054585        0.6103054585        0.6103054585    0   0   0
O                0.3051527293        0.3051527293        0.3051527293    0   0   0
O                0.9154581878        0.9154581878        0.9154581878    0   0   0



     Writing config-only to output data dir /Users/kirill/Documents/dft/volume/NiO_struct_opt_dft_U/out/NiO.save/ :
     XML data file
     NEW-OLD atomic charge density approx. for the potential
     New effective cutoffs (rho, wfc):  368.53   36.83
     Generating pointlists ...

     Atomic wfc used for Hubbard projectors are orthogonalized


     total cpu time spent up to now is       20.1 secs

     Self-consistent Calculation

     iteration #  1     ecut=    55.00 Ry     beta= 0.30
     Davidson diagonalization with overlap
     ethr =  1.00E-06,  avg # of iterations =  6.0

     =================== HUBBARD OCCUPATIONS ===================
     ------------------------ ATOM    1 ------------------------
     Tr[ns(  1)] (up, down, total) =   4.91593  3.56959  8.48552
     Atomic magnetic moment for atom   1 =   1.34634
     SPIN  1
     eigenvalues:
       0.983  0.983  0.983  0.984  0.984
     eigenvectors (columns):
      -0.000 -0.000  0.000 -0.234  0.972
      -0.277 -0.953  0.127 -0.000 -0.000
      -0.596  0.066 -0.801 -0.000 -0.000
       0.000  0.000 -0.000 -0.972 -0.234
       0.754 -0.297 -0.586  0.000  0.000
     occupation matrix ns (before diag.):
       0.984 -0.000 -0.000 -0.000  0.000
      -0.000  0.983 -0.000  0.000  0.000
      -0.000 -0.000  0.983  0.000  0.000
      -0.000  0.000  0.000  0.984 -0.000
       0.000  0.000  0.000 -0.000  0.983
     SPIN  2
     eigenvalues:
       0.542  0.542  0.542  0.972  0.972
     eigenvectors (columns):
      -0.000  0.000  0.000 -0.314  0.949
      -0.270  0.822  0.501 -0.000 -0.000
      -0.607  0.258 -0.751 -0.000 -0.000
       0.000 -0.000 -0.000 -0.949 -0.314
       0.747  0.508 -0.429  0.000  0.000
     occupation matrix ns (before diag.):
       0.972 -0.000 -0.000 -0.000  0.000
      -0.000  0.542 -0.000  0.000  0.000
      -0.000 -0.000  0.542  0.000  0.000
      -0.000  0.000  0.000  0.972 -0.000
       0.000  0.000  0.000 -0.000  0.542
     ------------------------ ATOM    2 ------------------------
     Tr[ns(  2)] (up, down, total) =   3.56964  4.91595  8.48560
     Atomic magnetic moment for atom   2 =  -1.34631
     SPIN  1
     eigenvalues:
       0.542  0.542  0.542  0.972  0.972
     eigenvectors (columns):
      -0.000 -0.000 -0.000 -0.750  0.661
      -0.269 -0.900 -0.342 -0.000 -0.000
      -0.616 -0.113  0.780 -0.000 -0.000
       0.000  0.000  0.000 -0.661 -0.750
       0.741 -0.420  0.524  0.000  0.000
     occupation matrix ns (before diag.):
       0.972 -0.000 -0.000 -0.000  0.000
      -0.000  0.542 -0.000  0.000  0.000
      -0.000 -0.000  0.542  0.000  0.000
      -0.000  0.000  0.000  0.972 -0.000
       0.000  0.000  0.000 -0.000  0.542
     SPIN  2
     eigenvalues:
       0.983  0.983  0.983  0.984  0.984
     eigenvectors (columns):
      -0.000 -0.000  0.000 -0.671  0.741
      -0.286 -0.958  0.012 -0.000 -0.000
      -0.617  0.175 -0.767 -0.000 -0.000
       0.000  0.000 -0.000 -0.741 -0.671
       0.733 -0.227 -0.641  0.000  0.000
     occupation matrix ns (before diag.):
       0.984 -0.000 -0.000 -0.000  0.000
      -0.000  0.983 -0.000  0.000  0.000
      -0.000 -0.000  0.983  0.000  0.000
      -0.000  0.000  0.000  0.984 -0.000
       0.000  0.000  0.000 -0.000  0.983

     Number of occupied Hubbard levels =   16.9711

     Threshold (ethr) on eigenvalues was too large:
     Diagonalizing with lowered threshold

     Davidson diagonalization with overlap
     ethr =  5.05E-08,  avg # of iterations =  3.6

     total cpu time spent up to now is       20.5 secs

     total energy              =    -264.52601914 Ry
     estimated scf accuracy    <       0.00000920 Ry

     total magnetization       =     0.00 Bohr mag/cell
     absolute magnetization    =     2.84 Bohr mag/cell

     iteration #  2     ecut=    55.00 Ry     beta= 0.30
     Davidson diagonalization with overlap
     ethr =  2.87E-08,  avg # of iterations =  6.1

     total cpu time spent up to now is       20.7 secs

     total energy              =    -264.52602222 Ry
     estimated scf accuracy    <       0.00000752 Ry

     total magnetization       =    -0.00 Bohr mag/cell
     absolute magnetization    =     2.83 Bohr mag/cell

     iteration #  3     ecut=    55.00 Ry     beta= 0.30
     Davidson diagonalization with overlap
     ethr =  2.35E-08,  avg # of iterations =  1.6

     total cpu time spent up to now is       20.8 secs

     total energy              =    -264.52602288 Ry
     estimated scf accuracy    <       0.00000480 Ry

     total magnetization       =    -0.00 Bohr mag/cell
     absolute magnetization    =     2.83 Bohr mag/cell

[...]

     total energy              =    -264.55298987 Ry
     estimated scf accuracy    <       0.00000001 Ry

     total magnetization       =     0.00 Bohr mag/cell
     absolute magnetization    =     2.81 Bohr mag/cell

     iteration # 92     ecut=    55.00 Ry     beta= 0.30
     Davidson diagonalization with overlap
     ethr =  4.80E-12,  avg # of iterations =  1.1

     total cpu time spent up to now is       67.3 secs

     total energy              =    -264.55298987 Ry
     estimated scf accuracy    <       0.00000002 Ry

     total magnetization       =     0.00 Bohr mag/cell
     absolute magnetization    =     2.81 Bohr mag/cell

     iteration # 93     ecut=    55.00 Ry     beta= 0.30
     Davidson diagonalization with overlap
     ethr =  4.80E-12,  avg # of iterations =  4.6

     total cpu time spent up to now is       67.6 secs

     total energy              =    -264.55298987 Ry
     estimated scf accuracy    <          5.2E-09 Ry

     total magnetization       =    -0.00 Bohr mag/cell
     absolute magnetization    =     2.81 Bohr mag/cell

     iteration # 94     ecut=    55.00 Ry     beta= 0.30
     Davidson diagonalization with overlap
     ethr =  4.80E-12,  avg # of iterations =  3.1

     total cpu time spent up to now is       67.8 secs

     total energy              =    -264.55298987 Ry
     estimated scf accuracy    <          2.7E-09 Ry

     total magnetization       =     0.00 Bohr mag/cell
     absolute magnetization    =     2.81 Bohr mag/cell

     iteration # 95     ecut=    55.00 Ry     beta= 0.30
     Davidson diagonalization with overlap
     ethr =  4.80E-12,  avg # of iterations =  6.9

     total cpu time spent up to now is       68.2 secs

     total energy              =    -264.55298987 Ry
     estimated scf accuracy    <          5.4E-10 Ry

     total magnetization       =    -0.00 Bohr mag/cell
     absolute magnetization    =     2.81 Bohr mag/cell

     iteration # 96     ecut=    55.00 Ry     beta= 0.30
     Davidson diagonalization with overlap
     ethr =  1.67E-12,  avg # of iterations =  4.4

     total cpu time spent up to now is       68.5 secs

     total energy              =    -264.55298987 Ry
     estimated scf accuracy    <          7.5E-10 Ry

     total magnetization       =    -0.00 Bohr mag/cell
     absolute magnetization    =     2.81 Bohr mag/cell

     iteration # 97     ecut=    55.00 Ry     beta= 0.30
     Davidson diagonalization with overlap
     ethr =  1.67E-12,  avg # of iterations =  1.3

     total cpu time spent up to now is       68.7 secs

     total energy              =    -264.55298987 Ry
     estimated scf accuracy    <          6.8E-10 Ry

     total magnetization       =     0.00 Bohr mag/cell
     absolute magnetization    =     2.81 Bohr mag/cell

     iteration # 98     ecut=    55.00 Ry     beta= 0.30
     Davidson diagonalization with overlap
     ethr =  1.67E-12,  avg # of iterations =  1.9

     total cpu time spent up to now is       69.0 secs

     total energy              =    -264.55298987 Ry
     estimated scf accuracy    <          4.2E-10 Ry

     total magnetization       =     0.00 Bohr mag/cell
     absolute magnetization    =     2.81 Bohr mag/cell

     iteration # 99     ecut=    55.00 Ry     beta= 0.30
     Davidson diagonalization with overlap
     c_bands:  2 eigenvalues not converged
     ethr =  1.30E-12,  avg # of iterations = 14.0

     total cpu time spent up to now is       69.6 secs

     total energy              =    -264.55298987 Ry
     estimated scf accuracy    <       0.00000002 Ry

     total magnetization       =    -0.00 Bohr mag/cell
     absolute magnetization    =     2.81 Bohr mag/cell

     iteration #100     ecut=    55.00 Ry     beta= 0.30
     Davidson diagonalization with overlap
     ethr =  1.30E-12,  avg # of iterations =  7.8

     total cpu time spent up to now is       70.0 secs

     total energy              =    -264.55298987 Ry
     estimated scf accuracy    <          9.8E-09 Ry

     total magnetization       =    -0.00 Bohr mag/cell
     absolute magnetization    =     2.81 Bohr mag/cell

     iteration #101     ecut=    55.00 Ry     beta= 0.30
     Davidson diagonalization with overlap
     ethr =  1.30E-12,  avg # of iterations =  5.3

     total cpu time spent up to now is       70.3 secs

     total energy              =    -264.55298987 Ry
     estimated scf accuracy    <       0.00000001 Ry

     total magnetization       =    -0.00 Bohr mag/cell
     absolute magnetization    =     2.81 Bohr mag/cell

     iteration #102     ecut=    55.00 Ry     beta= 0.30
     Davidson diagonalization with overlap
     ethr =  1.30E-12,  avg # of iterations =  7.1

     total cpu time spent up to now is       70.7 secs

     total energy              =    -264.55298987 Ry
     estimated scf accuracy    <          7.9E-09 Ry

     total magnetization       =     0.00 Bohr mag/cell
     absolute magnetization    =     2.81 Bohr mag/cell

     iteration #103     ecut=    55.00 Ry     beta= 0.30
     Davidson diagonalization with overlap
     c_bands:  1 eigenvalues not converged
     c_bands:  3 eigenvalues not converged
     c_bands:  3 eigenvalues not converged
     c_bands:  2 eigenvalues not converged
     c_bands:  3 eigenvalues not converged
     c_bands:  4 eigenvalues not converged
     c_bands:  2 eigenvalues not converged
     ethr =  1.30E-12,  avg # of iterations = 18.2

     total cpu time spent up to now is       71.5 secs

     total energy              =    -264.55298987 Ry
     estimated scf accuracy    <       0.00000003 Ry

     total magnetization       =    -0.00 Bohr mag/cell
     absolute magnetization    =     2.81 Bohr mag/cell

     iteration #104     ecut=    55.00 Ry     beta= 0.30
     Davidson diagonalization with overlap
     c_bands:  1 eigenvalues not converged
     c_bands:  1 eigenvalues not converged
     ethr =  1.30E-12,  avg # of iterations = 12.9

     total cpu time spent up to now is       72.1 secs

     total energy              =    -264.55298987 Ry
     estimated scf accuracy    <          3.6E-09 Ry

     total magnetization       =     0.00 Bohr mag/cell
     absolute magnetization    =     2.81 Bohr mag/cell

     iteration #105     ecut=    55.00 Ry     beta= 0.30
     Davidson diagonalization with overlap
     c_bands:  3 eigenvalues not converged
     c_bands:  2 eigenvalues not converged
     c_bands:  3 eigenvalues not converged
     c_bands:  2 eigenvalues not converged
     c_bands:  2 eigenvalues not converged
     c_bands:  4 eigenvalues not converged
     c_bands:  1 eigenvalues not converged
     ethr =  1.30E-12,  avg # of iterations = 17.6

     total cpu time spent up to now is       72.9 secs

     total energy              =    -264.55298987 Ry
     estimated scf accuracy    <       0.00000003 Ry

     total magnetization       =     0.00 Bohr mag/cell
     absolute magnetization    =     2.81 Bohr mag/cell

     iteration #106     ecut=    55.00 Ry     beta= 0.30
     Davidson diagonalization with overlap
     ethr =  1.30E-12,  avg # of iterations =  9.5

     total cpu time spent up to now is       73.4 secs

     total energy              =    -264.55298987 Ry
     estimated scf accuracy    <          7.5E-09 Ry

     total magnetization       =    -0.00 Bohr mag/cell
     absolute magnetization    =     2.81 Bohr mag/cell

     iteration #107     ecut=    55.00 Ry     beta= 0.30
     Davidson diagonalization with overlap
     ethr =  1.30E-12,  avg # of iterations = 13.1

     total cpu time spent up to now is       74.0 secs

     total energy              =    -264.55298987 Ry
     estimated scf accuracy    <          7.5E-10 Ry

     total magnetization       =    -0.00 Bohr mag/cell
     absolute magnetization    =     2.81 Bohr mag/cell

     iteration #108     ecut=    55.00 Ry     beta= 0.30
     Davidson diagonalization with overlap
     ethr =  1.30E-12,  avg # of iterations =  3.2

     total cpu time spent up to now is       74.3 secs

     total energy              =    -264.55298987 Ry
     estimated scf accuracy    <          1.2E-09 Ry

     total magnetization       =    -0.00 Bohr mag/cell
     absolute magnetization    =     2.81 Bohr mag/cell

     iteration #109     ecut=    55.00 Ry     beta= 0.30
     Davidson diagonalization with overlap
     ethr =  1.30E-12,  avg # of iterations =  1.1

     total cpu time spent up to now is       74.5 secs

     total energy              =    -264.55298987 Ry
     estimated scf accuracy    <          9.9E-10 Ry

     total magnetization       =     0.00 Bohr mag/cell
     absolute magnetization    =     2.81 Bohr mag/cell

     iteration #110     ecut=    55.00 Ry     beta= 0.30
     Davidson diagonalization with overlap
     ethr =  1.30E-12,  avg # of iterations =  1.0

     total cpu time spent up to now is       74.8 secs

     total energy              =    -264.55298987 Ry
     estimated scf accuracy    <          7.4E-10 Ry

     total magnetization       =     0.00 Bohr mag/cell
     absolute magnetization    =     2.81 Bohr mag/cell

     iteration #111     ecut=    55.00 Ry     beta= 0.30
     Davidson diagonalization with overlap
     ethr =  1.30E-12,  avg # of iterations =  5.2

     Magnetic moment per site  (integrated on atomic sphere of radius R)
     atom   1 (R=0.179)  charge=  7.1754  magn=  1.2653
     atom   2 (R=0.179)  charge=  7.1754  magn= -1.2653
     atom   3 (R=0.179)  charge=  4.9047  magn=  0.0000
     atom   4 (R=0.179)  charge=  4.9047  magn=  0.0000

     total cpu time spent up to now is       75.1 secs

     End of self-consistent calculation

     =================== HUBBARD OCCUPATIONS ===================
     ------------------------ ATOM    1 ------------------------
     Tr[ns(  1)] (up, down, total) =   4.91279  3.58007  8.49287
     Atomic magnetic moment for atom   1 =   1.33272
     SPIN  1
     eigenvalues:
       0.982  0.982  0.982  0.984  0.984
     eigenvectors (columns):
      -0.000 -0.000  0.000 -0.295  0.955
      -0.286 -0.941  0.181 -0.000 -0.000
      -0.570  0.015 -0.821 -0.000 -0.000
       0.000  0.000 -0.000 -0.955 -0.295
       0.770 -0.338 -0.541  0.000  0.000
     occupation matrix ns (before diag.):
       0.984 -0.000 -0.000 -0.000  0.000
      -0.000  0.982 -0.000  0.000  0.000
      -0.000 -0.000  0.982  0.000  0.000
      -0.000  0.000  0.000  0.984 -0.000
       0.000  0.000  0.000 -0.000  0.982
     SPIN  2
     eigenvalues:
       0.546  0.546  0.546  0.972  0.972
     eigenvectors (columns):
       0.000 -0.000 -0.000  0.206 -0.979
       0.255  0.295 -0.921  0.000  0.000
       0.618  0.683  0.390  0.000  0.000
      -0.000  0.000  0.000  0.979  0.206
      -0.744  0.668  0.008 -0.000 -0.000
     occupation matrix ns (before diag.):
       0.972 -0.000 -0.000 -0.000  0.000
      -0.000  0.546 -0.000  0.000  0.000
      -0.000 -0.000  0.546  0.000  0.000
      -0.000  0.000  0.000  0.972 -0.000
       0.000  0.000  0.000 -0.000  0.546
     ------------------------ ATOM    2 ------------------------
     Tr[ns(  2)] (up, down, total) =   3.58008  4.91279  8.49287
     Atomic magnetic moment for atom   2 =  -1.33272
     SPIN  1
     eigenvalues:
       0.546  0.546  0.546  0.972  0.972
     eigenvectors (columns):
      -0.000 -0.000  0.000 -0.532  0.847
      -0.266 -0.952  0.149 -0.000 -0.000
      -0.570  0.031 -0.821 -0.000 -0.000
       0.000  0.000 -0.000 -0.847 -0.532
       0.777 -0.303 -0.551  0.000  0.000
     occupation matrix ns (before diag.):
       0.972 -0.000 -0.000 -0.000  0.000
      -0.000  0.546 -0.000  0.000  0.000
      -0.000 -0.000  0.546  0.000  0.000
      -0.000  0.000  0.000  0.972 -0.000
       0.000  0.000  0.000 -0.000  0.546
     SPIN  2
     eigenvalues:
       0.982  0.982  0.982  0.984  0.984
     eigenvectors (columns):
      -0.000  0.000 -0.000  0.047 -0.999
      -0.265 -0.593 -0.761  0.000  0.000
      -0.618 -0.501  0.606  0.000  0.000
       0.000 -0.000  0.000  0.999  0.047
       0.740 -0.630  0.233 -0.000 -0.000
     occupation matrix ns (before diag.):
       0.984 -0.000 -0.000 -0.000  0.000
      -0.000  0.982 -0.000  0.000  0.000
      -0.000 -0.000  0.982  0.000  0.000
      -0.000  0.000  0.000  0.984 -0.000
       0.000  0.000  0.000 -0.000  0.982

     Number of occupied Hubbard levels =   16.9857

 ------ SPIN UP ------------


          k = 0.0000 0.0000 0.0000 (  1471 PWs)   bands (ev):

    -7.4895  -3.9665   5.4321   5.4321   5.4321   7.7831   7.7831  10.5600
    10.5600  10.5600  10.7887  10.7887  10.7887  11.0753  11.0753  14.2937

          k =-0.2057 0.2057-0.2057 (  1525 PWs)   bands (ev):

    -6.9606  -4.5764   5.8965   5.8965   6.5982   7.6861   7.6861   8.4130
     9.6759   9.6759  10.4614  10.6809  10.6809  11.3416  11.3416  13.1657

          k = 0.4113-0.4113 0.4113 (  1502 PWs)   bands (ev):

    -5.7888  -5.7409   6.6085   6.6085   7.5067   7.5437   7.5437   7.6580
     8.8208   8.8208   9.3269  10.3302  10.3302  11.6000  11.6000  12.7097

          k =-0.0000 0.4113 0.0000 (  1523 PWs)   bands (ev):

    -6.8175  -4.6584   5.9026   5.9026   6.0886   7.2632   7.9758   9.0715
     9.0715   9.3576  10.3512  10.9327  11.0631  11.4598  11.4598  13.6257

          k = 0.6170-0.2057 0.6170 (  1527 PWs)   bands (ev):

    -6.0040  -5.3511   5.0203   6.1409   6.5589   7.9057   8.3201   8.4347
     8.7240   9.1124  10.1430  10.6874  11.0151  11.1036  11.2400  12.9861

          k = 0.4113 0.0000 0.4113 (  1522 PWs)   bands (ev):

    -6.2678  -5.1757   5.4757   6.4098   6.7153   7.1909   8.3560   8.5482
     9.0451   9.2521   9.8935  10.6691  10.8496  10.9937  11.0355  12.9658

          k = 0.0000-0.8227-0.0000 (  1524 PWs)   bands (ev):

    -5.9743  -5.2228   3.8900   6.6580   6.6580   8.0334   8.0334   8.1745
     8.3599   9.2421  10.8707  10.8707  11.0529  11.1675  11.6109  12.7729

          k =-0.4113-0.8227 0.0000 (  1540 PWs)   bands (ev):

    -5.6179  -5.6179   4.9524   5.0004   7.5361   7.5361   8.1475   8.4443
     8.6667   9.9667   9.9667  10.2510  11.0001  11.1287  12.3206  12.9161

 ------ SPIN DOWN ----------


          k = 0.0000 0.0000 0.0000 (  1471 PWs)   bands (ev):

    -7.4895  -3.9665   5.4321   5.4321   5.4321   7.7831   7.7831  10.5600
    10.5600  10.5600  10.7887  10.7887  10.7887  11.0752  11.0752  14.2937

          k =-0.2057 0.2057-0.2057 (  1525 PWs)   bands (ev):

    -6.9606  -4.5764   5.8965   5.8965   6.5982   7.6861   7.6861   8.4130
     9.6759   9.6759  10.4614  10.6809  10.6809  11.3416  11.3416  13.1657

          k = 0.4113-0.4113 0.4113 (  1502 PWs)   bands (ev):

    -5.7888  -5.7409   6.6086   6.6086   7.5067   7.5437   7.5437   7.6580
     8.8208   8.8208   9.3269  10.3302  10.3302  11.6001  11.6001  12.7097

          k =-0.0000 0.4113 0.0000 (  1523 PWs)   bands (ev):

    -6.8175  -4.6584   5.9026   5.9026   6.0886   7.2632   7.9758   9.0715
     9.0715   9.3576  10.3512  10.9327  11.0631  11.4598  11.4598  13.6257

          k = 0.6170-0.2057 0.6170 (  1527 PWs)   bands (ev):

    -6.0040  -5.3511   5.0203   6.1409   6.5589   7.9057   8.3201   8.4347
     8.7240   9.1124  10.1430  10.6874  11.0151  11.1036  11.2400  12.9861

          k = 0.4113 0.0000 0.4113 (  1522 PWs)   bands (ev):

    -6.2678  -5.1757   5.4757   6.4098   6.7153   7.1909   8.3560   8.5482
     9.0451   9.2521   9.8935  10.6691  10.8496  10.9937  11.0355  12.9658

          k = 0.0000-0.8227-0.0000 (  1524 PWs)   bands (ev):

    -5.9743  -5.2228   3.8900   6.6580   6.6580   8.0334   8.0334   8.1745
     8.3599   9.2421  10.8706  10.8706  11.0529  11.1675  11.6109  12.7729

          k =-0.4113-0.8227 0.0000 (  1540 PWs)   bands (ev):

    -5.6179  -5.6179   4.9524   5.0004   7.5361   7.5361   8.1475   8.4443
     8.6667   9.9667   9.9667  10.2510  11.0001  11.1287  12.3206  12.9161

     highest occupied level (ev):    14.2937

!    total energy              =    -264.55298987 Ry
     estimated scf accuracy    <          7.2E-12 Ry

     The total energy is the sum of the following terms:
     one-electron contribution =     -15.32280772 Ry
     hartree contribution      =      48.69433358 Ry
     xc contribution           =     -97.40913406 Ry
     ewald contribution        =    -200.81443502 Ry
     Hubbard energy            =       0.29905336 Ry

     total magnetization       =    -0.00 Bohr mag/cell
     absolute magnetization    =     2.81 Bohr mag/cell

     convergence has been achieved in 111 iterations


     Computing stress (Cartesian axis) and pressure

     stres_hub    :      1.45s CPU      1.50s WALL (       6 calls)
     dprojdepsilo :      1.33s CPU      1.38s WALL (     864 calls)
     dprojdeps1   :      0.07s CPU      0.07s WALL (     864 calls)
     dprojdeps2   :      0.86s CPU      0.88s WALL (     864 calls)
     dprojdeps3   :      0.40s CPU      0.43s WALL (     864 calls)
          total   stress  (Ry/bohr**3)                   (kbar)     P=      109.26
   0.00074272  -0.00000000  -0.00000000          109.26       -0.00       -0.00
  -0.00000000   0.00074272   0.00000000           -0.00      109.26        0.00
  -0.00000000   0.00000000   0.00074272           -0.00        0.00      109.26


     Writing all to output data dir /Users/kirill/Documents/dft/volume/NiO_struct_opt_dft_U/out/NiO.save/ :
     XML data file, charge density, pseudopotentials, collected wavefunctions

     init_run     :      0.58s CPU      0.59s WALL (       2 calls)
     electrons    :     71.15s CPU     72.26s WALL (       6 calls)
     update_pot   :      0.06s CPU      0.06s WALL (       4 calls)
     stress       :      2.54s CPU      2.60s WALL (       6 calls)

     Called by init_run:
     wfcinit      :      0.16s CPU      0.16s WALL (       2 calls)
     potinit      :      0.06s CPU      0.06s WALL (       2 calls)
     hinit0       :      0.27s CPU      0.27s WALL (       2 calls)

     Called by electrons:
     c_bands      :     44.32s CPU     45.23s WALL (     282 calls)
     sum_band     :     15.66s CPU     15.80s WALL (     282 calls)
     v_of_rho     :      4.65s CPU      4.67s WALL (     285 calls)
     newd         :      5.73s CPU      5.75s WALL (     285 calls)
     mix_rho      :      0.51s CPU      0.52s WALL (     282 calls)

     Called by c_bands:
     init_us_2    :      0.43s CPU      0.43s WALL (    9344 calls)
     cegterg      :     43.11s CPU     43.99s WALL (    4524 calls)

     Called by *egterg:
     cdiaghg      :      4.22s CPU      4.23s WALL (   27965 calls)
     h_psi        :     33.98s CPU     34.67s WALL (   28121 calls)
     s_psi        :      0.85s CPU      0.87s WALL (   28409 calls)
     g_psi        :      0.07s CPU      0.08s WALL (   23565 calls)

     Called by h_psi:
     h_psi:calbec :      1.58s CPU      1.63s WALL (   28121 calls)
     vloc_psi     :     29.98s CPU     30.53s WALL (   28121 calls)
                                        0.00s GPU  (   28121 calls)
     add_vuspsi   :      0.91s CPU      0.92s WALL (   28121 calls)
     vhpsi        :      1.45s CPU      1.50s WALL (   28121 calls)

     General routines
     calbec       :      4.06s CPU      4.18s WALL (   95410 calls)
     fft          :      3.35s CPU      3.36s WALL (    7249 calls)
     ffts         :      0.11s CPU      0.11s WALL (    1134 calls)
     fftw         :     32.65s CPU     33.16s WALL (  565360 calls)
     interpolate  :      0.27s CPU      0.27s WALL (     570 calls)

     Parallel routines

     Hubbard U routines
     new_ns       :      0.23s CPU      0.24s WALL (     282 calls)
     vhpsi        :      1.45s CPU      1.50s WALL (   28121 calls)
     stres_hub    :      1.45s CPU      1.50s WALL (       6 calls)

     PWSCF        :   1m14.56s CPU   1m15.76s WALL


   This run was terminated on:  20:46:45  24Feb2026            

=------------------------------------------------------------------------------=
   JOB DONE.
=------------------------------------------------------------------------------=
