
     Program PWSCF v.7.5 starts on 25Feb2026 at 20: 8:34 

     This program is part of the open-source Quantum ESPRESSO suite
     for quantum simulation of materials; please cite
         "P. Giannozzi et al., J. Phys.:Condens. Matter 21 395502 (2009);
         "P. Giannozzi et al., J. Phys.:Condens. Matter 29 465901 (2017);
         "P. Giannozzi et al., J. Chem. Phys. 152 154105 (2020);
          URL http://www.quantum-espresso.org", 
     in publications or presentations arising from this work. More details at
     http://www.quantum-espresso.org/quote

     Parallel version (MPI), running on     5 processors

     MPI processes distributed on     1 nodes
     0 MiB available memory on the printing compute node when the environment starts

     Reading input from NiO.vc_relax_dft_U.in

     Current dimensions of program PWSCF are:
     Max number of different atomic species (ntypx) = 10
     Max number of k-points (npk) =  40000
     Max angular momentum in pseudopotentials (lmaxx) =  4
     file Ni.pbesol-n-rrkjus_psl.0.1.UPF: wavefunction(s)  3D renormalized
     file Ni.pbesol-n-rrkjus_psl.0.1.UPF: wavefunction(s)  3D renormalized

     R & G space division:  proc/nbgrp/npool/nimage =       5
     Subspace diagonalization in iterative solution of the eigenvalue problem:
     a serial algorithm will be used


     Parallelization info
     --------------------
     sticks:   dense  smooth     PW     G-vecs:    dense   smooth      PW
     Min         235      95     30                 5362     1371     248
     Max         236      95     31                 5364     1371     251
     Sum        1177     475    151                26813     6855    1243

     Using Slab Decomposition



     bravais-lattice index     =            2
     lattice parameter (alat)  =       7.9000  a.u.
     unit-cell volume          =     123.2598 (a.u.)^3
     number of atoms/cell      =            4
     number of atomic types    =            3
     number of electrons       =        32.00 (up:  16.00, down:  16.00)
     number of Kohn-Sham states=           16
     kinetic-energy cutoff     =      55.0000  Ry
     charge density cutoff     =     550.0000  Ry
     scf convergence threshold =      1.0E-09
     mixing beta               =       0.3000
     number of iterations used =            8  plain     mixing
     energy convergence thresh.=      1.0E-05
     force convergence thresh. =      1.0E-04
     press convergence thresh. =      5.0E-01
     Exchange-correlation= PBESOL
                           (   1   4  10   8   0   0   0)
     nstep                     =           50

     Hubbard projectors: ortho-atomic
     Hubbard parameters of DFT+U (Dudarev formulation) in eV:
     U(Ni1-3d) =  4.6000
     U(Ni2-3d) =  4.6000

     Internal variables: lda_plus_u =T, lda_plus_u_kind = 0

     Internal variables: orbital_resolved =F, hub_pot_fix =F, apply_U = F

     celldm(1)=   7.900000  celldm(2)=   0.000000  celldm(3)=   0.000000
     celldm(4)=   0.000000  celldm(5)=   0.000000  celldm(6)=   0.000000

     crystal axes: (cart. coord. in units of alat)
               a(1) = (  -0.500000   0.000000   0.500000 )  
               a(2) = (   0.000000   0.500000   0.500000 )  
               a(3) = (  -0.500000   0.500000   0.000000 )  

     reciprocal axes: (cart. coord. in units 2 pi/alat)
               b(1) = ( -1.000000 -1.000000  1.000000 )  
               b(2) = (  1.000000  1.000000  1.000000 )  
               b(3) = ( -1.000000  1.000000 -1.000000 )  


     PseudoPot. # 1 for Ni read from file:
     /Users/kirill/Documents/dft/volume/NiO_struct_opt_dft_U/../../pot/Ni.pbesol-n-rrkjus_psl.0.1.UPF
     MD5 check sum: 8a65ecc087b22b902f7e15bb4f925df7
     Pseudo is Ultrasoft + core correction, Zval = 10.0
     Generated using "atomic" code by A. Dal Corso  v.5.0.2 svn rev. 9415
     Using radial grid of 1195 points,  6 beta functions with: 
                l(1) =   0
                l(2) =   0
                l(3) =   1
                l(4) =   1
                l(5) =   2
                l(6) =   2
     Q(r) pseudized with 0 coefficients 


     PseudoPot. # 2 for Ni read from file:
     /Users/kirill/Documents/dft/volume/NiO_struct_opt_dft_U/../../pot/Ni.pbesol-n-rrkjus_psl.0.1.UPF
     MD5 check sum: 8a65ecc087b22b902f7e15bb4f925df7
     Pseudo is Ultrasoft + core correction, Zval = 10.0
     Generated using "atomic" code by A. Dal Corso  v.5.0.2 svn rev. 9415
     Using radial grid of 1195 points,  6 beta functions with: 
                l(1) =   0
                l(2) =   0
                l(3) =   1
                l(4) =   1
                l(5) =   2
                l(6) =   2
     Q(r) pseudized with 0 coefficients 


     PseudoPot. # 3 for O  read from file:
     /Users/kirill/Documents/dft/volume/NiO_struct_opt_dft_U/../../pot/O.pbesol-n-rrkjus_psl.1.0.0.UPF
     MD5 check sum: 69b2cf9905362d8720b1d83b4ba3171b
     Pseudo is Ultrasoft + core correction, Zval =  6.0
     Generated using &quot;atomic&quot; code by A. Dal Corso  v.6.3MaX
     Using radial grid of 1095 points,  4 beta functions with: 
                l(1) =   0
                l(2) =   0
                l(3) =   1
                l(4) =   1
     Q(r) pseudized with 0 coefficients 


     atomic species   valence    mass     pseudopotential
     Ni1              10.00    58.69340     Ni( 1.00)
     Ni2              10.00    58.69340     Ni( 1.00)
     O                 6.00    15.99900     O ( 1.00)

     Starting magnetic structure 
     atomic species   magnetization
     Ni1             0.200
     Ni2            -0.200
     O               0.000

     48 Sym. Ops., with inversion, found



   Cartesian axes

     site n.     atom                  positions (alat units)
         1        Ni1    tau(   1) = (   0.0000000   0.0000000   0.0000000  )
         2        Ni2    tau(   2) = (   0.5000000   0.5000000   0.5000000  )
         3        O      tau(   3) = (   0.2500000   0.2500000   0.2500000  )
         4        O      tau(   4) = (   0.7500000   0.7500000   0.7500000  )

     number of k points=     8
                       cart. coord. in units 2pi/alat
        k(    1) = (   0.0000000   0.0000000   0.0000000), wk =   0.0156250
        k(    2) = (  -0.2500000   0.2500000  -0.2500000), wk =   0.1250000
        k(    3) = (   0.5000000  -0.5000000   0.5000000), wk =   0.0625000
        k(    4) = (   0.0000000   0.5000000   0.0000000), wk =   0.0937500
        k(    5) = (   0.7500000  -0.2500000   0.7500000), wk =   0.3750000
        k(    6) = (   0.5000000   0.0000000   0.5000000), wk =   0.1875000
        k(    7) = (   0.0000000  -1.0000000   0.0000000), wk =   0.0468750
        k(    8) = (  -0.5000000  -1.0000000   0.0000000), wk =   0.0937500

     Dense  grid:    26813 G-vectors     FFT dimensions: (  45,  45,  45)

     Smooth grid:     6855 G-vectors     FFT dimensions: (  27,  27,  27)

     Estimated max dynamical RAM per process >      35.25 MB

     Estimated total dynamical RAM >     176.25 MB
     Generating pointlists ...
     new r_m :   0.1786 (alat units)  1.4111 (a.u.) for type    1
     new r_m :   0.1786 (alat units)  1.4111 (a.u.) for type    2
     new r_m :   0.1786 (alat units)  1.4111 (a.u.) for type    3

     Initial potential from superposition of free atoms

     starting charge      31.9995, renormalised to      32.0000

     STARTING HUBBARD OCCUPATIONS:

     =================== HUBBARD OCCUPATIONS ===================
     ------------------------ ATOM    1 ------------------------
     Tr[ns(  1)] (up, down, total) =   5.00000  3.00000  8.00000
     Atomic magnetic moment for atom   1 =   2.00000
     SPIN  1
     eigenvalues:
       1.000  1.000  1.000  1.000  1.000
     eigenvectors (columns):
       1.000  0.000  0.000  0.000  0.000
       0.000  1.000  0.000  0.000  0.000
       0.000  0.000  1.000  0.000  0.000
       0.000  0.000  0.000  1.000  0.000
       0.000  0.000  0.000  0.000  1.000
     occupation matrix ns (before diag.):
       1.000  0.000  0.000  0.000  0.000
       0.000  1.000  0.000  0.000  0.000
       0.000  0.000  1.000  0.000  0.000
       0.000  0.000  0.000  1.000  0.000
       0.000  0.000  0.000  0.000  1.000
     SPIN  2
     eigenvalues:
       0.600  0.600  0.600  0.600  0.600
     eigenvectors (columns):
       1.000  0.000  0.000  0.000  0.000
       0.000  1.000  0.000  0.000  0.000
       0.000  0.000  1.000  0.000  0.000
       0.000  0.000  0.000  1.000  0.000
       0.000  0.000  0.000  0.000  1.000
     occupation matrix ns (before diag.):
       0.600  0.000  0.000  0.000  0.000
       0.000  0.600  0.000  0.000  0.000
       0.000  0.000  0.600  0.000  0.000
       0.000  0.000  0.000  0.600  0.000
       0.000  0.000  0.000  0.000  0.600
     ------------------------ ATOM    2 ------------------------
     Tr[ns(  2)] (up, down, total) =   3.00000  5.00000  8.00000
     Atomic magnetic moment for atom   2 =  -2.00000
     SPIN  1
     eigenvalues:
       0.600  0.600  0.600  0.600  0.600
     eigenvectors (columns):
       1.000  0.000  0.000  0.000  0.000
       0.000  1.000  0.000  0.000  0.000
       0.000  0.000  1.000  0.000  0.000
       0.000  0.000  0.000  1.000  0.000
       0.000  0.000  0.000  0.000  1.000
     occupation matrix ns (before diag.):
       0.600  0.000  0.000  0.000  0.000
       0.000  0.600  0.000  0.000  0.000
       0.000  0.000  0.600  0.000  0.000
       0.000  0.000  0.000  0.600  0.000
       0.000  0.000  0.000  0.000  0.600
     SPIN  2
     eigenvalues:
       1.000  1.000  1.000  1.000  1.000
     eigenvectors (columns):
       1.000  0.000  0.000  0.000  0.000
       0.000  1.000  0.000  0.000  0.000
       0.000  0.000  1.000  0.000  0.000
       0.000  0.000  0.000  1.000  0.000
       0.000  0.000  0.000  0.000  1.000
     occupation matrix ns (before diag.):
       1.000  0.000  0.000  0.000  0.000
       0.000  1.000  0.000  0.000  0.000
       0.000  0.000  1.000  0.000  0.000
       0.000  0.000  0.000  1.000  0.000
       0.000  0.000  0.000  0.000  1.000

     Number of occupied Hubbard levels =   16.0000

     Atomic wfc used for Hubbard projectors are orthogonalized

     Starting wfcs are   26 randomized atomic wfcs

     total cpu time spent up to now is        0.5 secs

     Self-consistent Calculation

     iteration #  1     ecut=    55.00 Ry     beta= 0.30
     Davidson diagonalization with overlap
     ethr =  1.00E-02,  avg # of iterations =  2.8

     =================== HUBBARD OCCUPATIONS ===================
     ------------------------ ATOM    1 ------------------------
     Tr[ns(  1)] (up, down, total) =   4.81674  3.77018  8.58692
     Atomic magnetic moment for atom   1 =   1.04655
     SPIN  1
     eigenvalues:
       0.949  0.949  0.949  0.985  0.985
     eigenvectors (columns):
      -0.000 -0.000 -0.000 -0.238  0.971
      -0.270 -0.863 -0.426 -0.000 -0.000
      -0.620 -0.183  0.763 -0.000 -0.000
       0.000  0.000  0.000 -0.971 -0.238
       0.737 -0.470  0.486  0.000  0.000
     occupation matrix ns (before diag.):
       0.985 -0.000 -0.000 -0.000  0.000
      -0.000  0.949 -0.000  0.000  0.000
      -0.000 -0.000  0.949  0.000  0.000
      -0.000  0.000  0.000  0.985 -0.000
       0.000  0.000  0.000 -0.000  0.949
     SPIN  2
     eigenvalues:
       0.622  0.622  0.622  0.953  0.953
     eigenvectors (columns):
      -0.000 -0.000  0.000  0.161 -0.987
      -0.284 -0.948  0.146  0.000  0.000
      -0.588  0.052 -0.807  0.000  0.000
       0.000  0.000 -0.000  0.987  0.161
       0.758 -0.315 -0.572 -0.000 -0.000
     occupation matrix ns (before diag.):
       0.953 -0.000 -0.000 -0.000  0.000
      -0.000  0.622 -0.000  0.000  0.000
      -0.000 -0.000  0.622  0.000  0.000
      -0.000  0.000  0.000  0.953 -0.000
       0.000  0.000  0.000 -0.000  0.622
     ------------------------ ATOM    2 ------------------------
     Tr[ns(  2)] (up, down, total) =   3.77403  4.81452  8.58855
     Atomic magnetic moment for atom   2 =  -1.04049
     SPIN  1
     eigenvalues:
       0.622  0.622  0.622  0.953  0.953
     eigenvectors (columns):
      -0.000 -0.000  0.000 -0.413  0.911
      -0.270 -0.919  0.288 -0.000 -0.000
      -0.582 -0.083 -0.809 -0.000 -0.000
       0.000  0.000 -0.000 -0.911 -0.413
       0.767 -0.386 -0.513  0.000  0.000
     occupation matrix ns (before diag.):
       0.953 -0.000 -0.000 -0.000  0.000
      -0.000  0.622 -0.000  0.000  0.000
      -0.000 -0.000  0.622  0.000  0.000
      -0.000  0.000  0.000  0.953 -0.000
       0.000  0.000  0.000 -0.000  0.622
     SPIN  2
     eigenvalues:
       0.949  0.949  0.949  0.984  0.984
     eigenvectors (columns):
      -0.000  0.000 -0.000 -0.238  0.971
      -0.283 -0.694 -0.662 -0.000 -0.000
      -0.622 -0.393  0.678 -0.000 -0.000
       0.000 -0.000  0.000 -0.971 -0.238
       0.730 -0.603  0.321  0.000  0.000
     occupation matrix ns (before diag.):
       0.984 -0.000 -0.000 -0.000  0.000
      -0.000  0.949 -0.000  0.000  0.000
      -0.000 -0.000  0.949  0.000  0.000
      -0.000  0.000  0.000  0.984 -0.000
       0.000  0.000  0.000 -0.000  0.949

     Number of occupied Hubbard levels =   17.1755

     total cpu time spent up to now is        0.6 secs

     total energy              =    -263.16872016 Ry
     estimated scf accuracy    <       0.39385166 Ry

     total magnetization       =     0.00 Bohr mag/cell
     absolute magnetization    =     2.22 Bohr mag/cell

     iteration #  2     ecut=    55.00 Ry     beta= 0.30
     Davidson diagonalization with overlap
     ethr =  1.23E-03,  avg # of iterations =  3.8

     total cpu time spent up to now is        0.8 secs

     total energy              =    -263.31067879 Ry
     estimated scf accuracy    <       0.06795951 Ry

     total magnetization       =     0.00 Bohr mag/cell
     absolute magnetization    =     2.19 Bohr mag/cell

     iteration #  3     ecut=    55.00 Ry     beta= 0.30
     Davidson diagonalization with overlap
     ethr =  2.12E-04,  avg # of iterations =  5.9

     total cpu time spent up to now is        1.0 secs

     total energy              =    -263.36851600 Ry
     estimated scf accuracy    <       0.00819778 Ry

     total magnetization       =     0.00 Bohr mag/cell
     absolute magnetization    =     2.05 Bohr mag/cell

     iteration #  4     ecut=    55.00 Ry     beta= 0.30
     Davidson diagonalization with overlap
     ethr =  2.56E-05,  avg # of iterations =  9.2

     total cpu time spent up to now is        1.3 secs

     total energy              =    -263.38410340 Ry
     estimated scf accuracy    <       0.02042456 Ry

     total magnetization       =     0.00 Bohr mag/cell
     absolute magnetization    =     1.80 Bohr mag/cell

     iteration #  5     ecut=    55.00 Ry     beta= 0.30
     Davidson diagonalization with overlap
     ethr =  2.56E-05,  avg # of iterations =  3.2

     total cpu time spent up to now is        1.5 secs

     total energy              =    -263.38071177 Ry
     estimated scf accuracy    <       0.04340093 Ry

     total magnetization       =     0.00 Bohr mag/cell
     absolute magnetization    =     1.79 Bohr mag/cell

     iteration #  6     ecut=    55.00 Ry     beta= 0.30
     Davidson diagonalization with overlap
     ethr =  2.56E-05,  avg # of iterations =  1.8

     total cpu time spent up to now is        1.6 secs

     total energy              =    -263.37255269 Ry
     estimated scf accuracy    <       0.02614443 Ry

     total magnetization       =    -0.00 Bohr mag/cell
     absolute magnetization    =     1.77 Bohr mag/cell

     iteration #  7     ecut=    55.00 Ry     beta= 0.30
     Davidson diagonalization with overlap
     ethr =  2.56E-05,  avg # of iterations =  9.0

     total cpu time spent up to now is        1.9 secs

     total energy              =    -263.37486270 Ry
     estimated scf accuracy    <       0.02886937 Ry

     total magnetization       =     0.00 Bohr mag/cell
     absolute magnetization    =     1.71 Bohr mag/cell

     iteration #  8     ecut=    55.00 Ry     beta= 0.30
     Davidson diagonalization with overlap
     ethr =  2.56E-05,  avg # of iterations =  6.6

     total cpu time spent up to now is        2.1 secs

     total energy              =    -263.38278514 Ry
     estimated scf accuracy    <       0.00261269 Ry

     total magnetization       =     0.00 Bohr mag/cell
     absolute magnetization    =     1.66 Bohr mag/cell

     iteration #  9     ecut=    55.00 Ry     beta= 0.30
     Davidson diagonalization with overlap
     ethr =  8.16E-06,  avg # of iterations =  4.4

     total cpu time spent up to now is        2.3 secs

     total energy              =    -263.38407921 Ry
     estimated scf accuracy    <       0.00082890 Ry

     total magnetization       =     0.00 Bohr mag/cell
     absolute magnetization    =     1.64 Bohr mag/cell

     iteration # 10     ecut=    55.00 Ry     beta= 0.30
     Davidson diagonalization with overlap
     ethr =  2.59E-06,  avg # of iterations =  7.9

     total cpu time spent up to now is        2.5 secs

     total energy              =    -263.38455168 Ry
     estimated scf accuracy    <       0.00325455 Ry

     total magnetization       =    -0.00 Bohr mag/cell
     absolute magnetization    =     1.59 Bohr mag/cell

     iteration # 11     ecut=    55.00 Ry     beta= 0.30
     Davidson diagonalization with overlap
     ethr =  2.59E-06,  avg # of iterations =  1.6

     total cpu time spent up to now is        2.7 secs

     total energy              =    -263.38487267 Ry
     estimated scf accuracy    <       0.00283049 Ry

     total magnetization       =    -0.00 Bohr mag/cell
     absolute magnetization    =     1.59 Bohr mag/cell

     iteration # 12     ecut=    55.00 Ry     beta= 0.30
     Davidson diagonalization with overlap
     ethr =  2.59E-06,  avg # of iterations =  1.7

     total cpu time spent up to now is        2.8 secs

     total energy              =    -263.38389053 Ry
     estimated scf accuracy    <       0.00313649 Ry

     total magnetization       =     0.00 Bohr mag/cell
     absolute magnetization    =     1.58 Bohr mag/cell

     iteration # 13     ecut=    55.00 Ry     beta= 0.30
     Davidson diagonalization with overlap
     ethr =  2.59E-06,  avg # of iterations =  9.2

     total cpu time spent up to now is        3.0 secs

     total energy              =    -263.38458967 Ry
     estimated scf accuracy    <       0.00026265 Ry

     total magnetization       =     0.00 Bohr mag/cell
     absolute magnetization    =     1.49 Bohr mag/cell

     iteration # 14     ecut=    55.00 Ry     beta= 0.30
     Davidson diagonalization with overlap
     ethr =  8.21E-07,  avg # of iterations =  5.0

     total cpu time spent up to now is        3.2 secs

     total energy              =    -263.38466258 Ry
     estimated scf accuracy    <       0.00018849 Ry

     total magnetization       =    -0.00 Bohr mag/cell
     absolute magnetization    =     1.47 Bohr mag/cell

     iteration # 15     ecut=    55.00 Ry     beta= 0.30
     Davidson diagonalization with overlap
     ethr =  5.89E-07,  avg # of iterations =  1.7

     total cpu time spent up to now is        3.3 secs

     total energy              =    -263.38467131 Ry
     estimated scf accuracy    <       0.00021674 Ry

     total magnetization       =    -0.00 Bohr mag/cell
     absolute magnetization    =     1.47 Bohr mag/cell

     iteration # 16     ecut=    55.00 Ry     beta= 0.30
     Davidson diagonalization with overlap
     ethr =  5.89E-07,  avg # of iterations = 11.4

     total cpu time spent up to now is        3.7 secs

     total energy              =    -263.38468624 Ry
     estimated scf accuracy    <       0.00167852 Ry

     total magnetization       =     0.00 Bohr mag/cell
     absolute magnetization    =     1.42 Bohr mag/cell

     iteration # 17     ecut=    55.00 Ry     beta= 0.30
     Davidson diagonalization with overlap
     ethr =  5.89E-07,  avg # of iterations =  4.2

     total cpu time spent up to now is        3.8 secs

     total energy              =    -263.38473219 Ry
     estimated scf accuracy    <       0.00099035 Ry

     total magnetization       =     0.00 Bohr mag/cell
     absolute magnetization    =     1.43 Bohr mag/cell

     iteration # 18     ecut=    55.00 Ry     beta= 0.30
     Davidson diagonalization with overlap
     ethr =  5.89E-07,  avg # of iterations =  1.2

     total cpu time spent up to now is        4.0 secs

     total energy              =    -263.38484562 Ry
     estimated scf accuracy    <       0.00093519 Ry

     total magnetization       =     0.00 Bohr mag/cell
     absolute magnetization    =     1.43 Bohr mag/cell

     iteration # 19     ecut=    55.00 Ry     beta= 0.30
     Davidson diagonalization with overlap
     ethr =  5.89E-07,  avg # of iterations =  1.3

     total cpu time spent up to now is        4.1 secs

     total energy              =    -263.38485173 Ry
     estimated scf accuracy    <       0.00079116 Ry

     total magnetization       =    -0.00 Bohr mag/cell
     absolute magnetization    =     1.43 Bohr mag/cell

     iteration # 20     ecut=    55.00 Ry     beta= 0.30
     Davidson diagonalization with overlap
     ethr =  5.89E-07,  avg # of iterations =  1.0

     total cpu time spent up to now is        4.2 secs

     total energy              =    -263.38487589 Ry
     estimated scf accuracy    <       0.00081100 Ry

     total magnetization       =    -0.00 Bohr mag/cell
     absolute magnetization    =     1.43 Bohr mag/cell

     iteration # 21     ecut=    55.00 Ry     beta= 0.30
     Davidson diagonalization with overlap
     ethr =  5.89E-07,  avg # of iterations =  1.1

     total cpu time spent up to now is        4.4 secs

     total energy              =    -263.38487127 Ry
     estimated scf accuracy    <       0.00077841 Ry

     total magnetization       =    -0.00 Bohr mag/cell
     absolute magnetization    =     1.43 Bohr mag/cell

     iteration # 22     ecut=    55.00 Ry     beta= 0.30
     Davidson diagonalization with overlap
     ethr =  5.89E-07,  avg # of iterations =  1.8

     total cpu time spent up to now is        4.5 secs

     total energy              =    -263.38488545 Ry
     estimated scf accuracy    <       0.00053578 Ry

     total magnetization       =    -0.00 Bohr mag/cell
     absolute magnetization    =     1.42 Bohr mag/cell

     iteration # 23     ecut=    55.00 Ry     beta= 0.30
     Davidson diagonalization with overlap
     ethr =  5.89E-07,  avg # of iterations =  1.7

     total cpu time spent up to now is        4.7 secs

     total energy              =    -263.38487724 Ry
     estimated scf accuracy    <       0.00036023 Ry

     total magnetization       =    -0.00 Bohr mag/cell
     absolute magnetization    =     1.42 Bohr mag/cell

     iteration # 24     ecut=    55.00 Ry     beta= 0.30
     Davidson diagonalization with overlap
     ethr =  5.89E-07,  avg # of iterations =  2.1

     total cpu time spent up to now is        4.8 secs

     total energy              =    -263.38481757 Ry
     estimated scf accuracy    <       0.00027030 Ry

     total magnetization       =     0.00 Bohr mag/cell
     absolute magnetization    =     1.42 Bohr mag/cell

     iteration # 25     ecut=    55.00 Ry     beta= 0.30
     Davidson diagonalization with overlap
     ethr =  5.89E-07,  avg # of iterations =  6.8

     total cpu time spent up to now is        5.0 secs

     total energy              =    -263.38492661 Ry
     estimated scf accuracy    <       0.00002573 Ry

     total magnetization       =     0.00 Bohr mag/cell
     absolute magnetization    =     1.40 Bohr mag/cell

     iteration # 26     ecut=    55.00 Ry     beta= 0.30
     Davidson diagonalization with overlap
     ethr =  8.04E-08,  avg # of iterations =  9.8

     total cpu time spent up to now is        5.2 secs

     total energy              =    -263.38496939 Ry
     estimated scf accuracy    <       0.00002874 Ry

     total magnetization       =     0.00 Bohr mag/cell
     absolute magnetization    =     1.38 Bohr mag/cell

     iteration # 27     ecut=    55.00 Ry     beta= 0.30
     Davidson diagonalization with overlap
     ethr =  8.04E-08,  avg # of iterations =  8.8

     total cpu time spent up to now is        5.4 secs

     total energy              =    -263.38500114 Ry
     estimated scf accuracy    <       0.00000621 Ry

     total magnetization       =    -0.00 Bohr mag/cell
     absolute magnetization    =     1.35 Bohr mag/cell

     iteration # 28     ecut=    55.00 Ry     beta= 0.30
     Davidson diagonalization with overlap
     ethr =  1.94E-08,  avg # of iterations =  9.2

     total cpu time spent up to now is        5.7 secs

     total energy              =    -263.38500517 Ry
     estimated scf accuracy    <       0.00000854 Ry

     total magnetization       =     0.00 Bohr mag/cell
     absolute magnetization    =     1.34 Bohr mag/cell

     iteration # 29     ecut=    55.00 Ry     beta= 0.30
     Davidson diagonalization with overlap
     ethr =  1.94E-08,  avg # of iterations =  1.6

     total cpu time spent up to now is        5.8 secs

     total energy              =    -263.38499227 Ry
     estimated scf accuracy    <       0.00001175 Ry

     total magnetization       =     0.00 Bohr mag/cell
     absolute magnetization    =     1.34 Bohr mag/cell

     iteration # 30     ecut=    55.00 Ry     beta= 0.30
     Davidson diagonalization with overlap
     ethr =  1.94E-08,  avg # of iterations = 11.2

     total cpu time spent up to now is        6.0 secs

     total energy              =    -263.38501684 Ry
     estimated scf accuracy    <       0.00000402 Ry

     total magnetization       =     0.00 Bohr mag/cell
     absolute magnetization    =     1.32 Bohr mag/cell

     iteration # 31     ecut=    55.00 Ry     beta= 0.30
     Davidson diagonalization with overlap
     ethr =  1.26E-08,  avg # of iterations =  6.1

     total cpu time spent up to now is        6.3 secs

     total energy              =    -263.38501725 Ry
     estimated scf accuracy    <       0.00000964 Ry

     total magnetization       =     0.00 Bohr mag/cell
     absolute magnetization    =     1.32 Bohr mag/cell

     iteration # 32     ecut=    55.00 Ry     beta= 0.30
     Davidson diagonalization with overlap
     ethr =  1.26E-08,  avg # of iterations =  1.6

     total cpu time spent up to now is        6.4 secs

     total energy              =    -263.38501566 Ry
     estimated scf accuracy    <       0.00000664 Ry

     total magnetization       =    -0.00 Bohr mag/cell
     absolute magnetization    =     1.32 Bohr mag/cell

     iteration # 33     ecut=    55.00 Ry     beta= 0.30
     Davidson diagonalization with overlap
     ethr =  1.26E-08,  avg # of iterations =  3.9

     total cpu time spent up to now is        6.6 secs

     total energy              =    -263.38501604 Ry
     estimated scf accuracy    <       0.00000102 Ry

     total magnetization       =     0.00 Bohr mag/cell
     absolute magnetization    =     1.32 Bohr mag/cell

     iteration # 34     ecut=    55.00 Ry     beta= 0.30
     Davidson diagonalization with overlap
     ethr =  3.19E-09,  avg # of iterations =  4.7

     total cpu time spent up to now is        6.7 secs

     total energy              =    -263.38501622 Ry
     estimated scf accuracy    <       0.00000036 Ry

     total magnetization       =     0.00 Bohr mag/cell
     absolute magnetization    =     1.32 Bohr mag/cell

     iteration # 35     ecut=    55.00 Ry     beta= 0.30
     Davidson diagonalization with overlap
     ethr =  1.11E-09,  avg # of iterations =  8.1

     total cpu time spent up to now is        7.0 secs

     total energy              =    -263.38501578 Ry
     estimated scf accuracy    <       0.00000126 Ry

     total magnetization       =     0.00 Bohr mag/cell
     absolute magnetization    =     1.32 Bohr mag/cell

     iteration # 36     ecut=    55.00 Ry     beta= 0.30
     Davidson diagonalization with overlap
     ethr =  1.11E-09,  avg # of iterations = 11.1

     total cpu time spent up to now is        7.2 secs

     total energy              =    -263.38501681 Ry
     estimated scf accuracy    <       0.00000028 Ry

     total magnetization       =     0.00 Bohr mag/cell
     absolute magnetization    =     1.32 Bohr mag/cell

     iteration # 37     ecut=    55.00 Ry     beta= 0.30
     Davidson diagonalization with overlap
     ethr =  8.79E-10,  avg # of iterations =  4.3

     total cpu time spent up to now is        7.4 secs

     total energy              =    -263.38501671 Ry
     estimated scf accuracy    <       0.00000064 Ry

     total magnetization       =    -0.00 Bohr mag/cell
     absolute magnetization    =     1.32 Bohr mag/cell

     iteration # 38     ecut=    55.00 Ry     beta= 0.30
     Davidson diagonalization with overlap
     ethr =  8.79E-10,  avg # of iterations =  5.4

     total cpu time spent up to now is        7.6 secs

     total energy              =    -263.38501680 Ry
     estimated scf accuracy    <       0.00000008 Ry

     total magnetization       =     0.00 Bohr mag/cell
     absolute magnetization    =     1.32 Bohr mag/cell

     iteration # 39     ecut=    55.00 Ry     beta= 0.30
     Davidson diagonalization with overlap
     ethr =  2.43E-10,  avg # of iterations =  4.7

     total cpu time spent up to now is        7.7 secs

     total energy              =    -263.38501683 Ry
     estimated scf accuracy    <       0.00000002 Ry

     total magnetization       =    -0.00 Bohr mag/cell
     absolute magnetization    =     1.32 Bohr mag/cell

     iteration # 40     ecut=    55.00 Ry     beta= 0.30
     Davidson diagonalization with overlap
     ethr =  5.61E-11,  avg # of iterations =  5.4

     total cpu time spent up to now is        7.9 secs

     total energy              =    -263.38501683 Ry
     estimated scf accuracy    <       0.00000002 Ry

     total magnetization       =    -0.00 Bohr mag/cell
     absolute magnetization    =     1.32 Bohr mag/cell

     iteration # 41     ecut=    55.00 Ry     beta= 0.30
     Davidson diagonalization with overlap
     ethr =  4.91E-11,  avg # of iterations =  3.6

     total cpu time spent up to now is        8.1 secs

     total energy              =    -263.38501683 Ry
     estimated scf accuracy    <          3.3E-09 Ry

     total magnetization       =    -0.00 Bohr mag/cell
     absolute magnetization    =     1.32 Bohr mag/cell

     iteration # 42     ecut=    55.00 Ry     beta= 0.30
     Davidson diagonalization with overlap
     ethr =  1.04E-11,  avg # of iterations =  6.9

     total cpu time spent up to now is        8.3 secs

     total energy              =    -263.38501683 Ry
     estimated scf accuracy    <          2.7E-09 Ry

     total magnetization       =     0.00 Bohr mag/cell
     absolute magnetization    =     1.32 Bohr mag/cell

     iteration # 43     ecut=    55.00 Ry     beta= 0.30
     Davidson diagonalization with overlap
     ethr =  8.51E-12,  avg # of iterations =  6.3

     Magnetic moment per site  (integrated on atomic sphere of radius R)
     atom   1 (R=0.179)  charge=  7.5611  magn=  0.6020
     atom   2 (R=0.179)  charge=  7.5612  magn= -0.6020
     atom   3 (R=0.179)  charge=  5.4500  magn= -0.0000
     atom   4 (R=0.179)  charge=  5.4500  magn= -0.0000

     total cpu time spent up to now is        8.4 secs

     End of self-consistent calculation

     =================== HUBBARD OCCUPATIONS ===================
     ------------------------ ATOM    1 ------------------------
     Tr[ns(  1)] (up, down, total) =   4.62783  4.01867  8.64650
     Atomic magnetic moment for atom   1 =   0.60915
     SPIN  1
     eigenvalues:
       0.894  0.894  0.894  0.973  0.973
     eigenvectors (columns):
      -0.000 -0.000 -0.000 -0.432  0.902
      -0.277 -0.866 -0.416 -0.000 -0.000
      -0.593 -0.187  0.783 -0.000 -0.000
       0.000  0.000  0.000 -0.902 -0.432
       0.756 -0.464  0.462  0.000  0.000
     occupation matrix ns (before diag.):
       0.973 -0.000 -0.000 -0.000  0.000
      -0.000  0.894 -0.000  0.000  0.000
      -0.000 -0.000  0.894  0.000  0.000
      -0.000  0.000  0.000  0.973 -0.000
       0.000  0.000  0.000 -0.000  0.894
     SPIN  2
     eigenvalues:
       0.700  0.700  0.700  0.959  0.959
     eigenvectors (columns):
      -0.000 -0.000  0.000 -0.654  0.757
      -0.267 -0.946  0.185 -0.000 -0.000
      -0.585  0.006 -0.811 -0.000 -0.000
       0.000  0.000 -0.000 -0.757 -0.654
       0.766 -0.325 -0.555  0.000  0.000
     occupation matrix ns (before diag.):
       0.959 -0.000 -0.000 -0.000  0.000
      -0.000  0.700 -0.000  0.000  0.000
      -0.000 -0.000  0.700  0.000  0.000
      -0.000  0.000  0.000  0.959 -0.000
       0.000  0.000  0.000 -0.000  0.700
     ------------------------ ATOM    2 ------------------------
     Tr[ns(  2)] (up, down, total) =   4.01868  4.62784  8.64652
     Atomic magnetic moment for atom   2 =  -0.60915
     SPIN  1
     eigenvalues:
       0.700  0.700  0.700  0.959  0.959
     eigenvectors (columns):
      -0.000 -0.000 -0.000 -0.323  0.946
      -0.286 -0.923 -0.258 -0.000 -0.000
      -0.581 -0.047  0.813 -0.000 -0.000
       0.000  0.000  0.000 -0.946 -0.323
       0.762 -0.382  0.522  0.000  0.000
     occupation matrix ns (before diag.):
       0.959 -0.000 -0.000 -0.000  0.000
      -0.000  0.700 -0.000  0.000  0.000
      -0.000 -0.000  0.700  0.000  0.000
      -0.000  0.000  0.000  0.959 -0.000
       0.000  0.000  0.000 -0.000  0.700
     SPIN  2
     eigenvalues:
       0.894  0.894  0.894  0.973  0.973
     eigenvectors (columns):
      -0.000 -0.000  0.000 -0.489  0.872
      -0.284 -0.958  0.051 -0.000 -0.000
      -0.590  0.133 -0.797 -0.000 -0.000
       0.000  0.000 -0.000 -0.872 -0.489
       0.756 -0.256 -0.602  0.000  0.000
     occupation matrix ns (before diag.):
       0.973 -0.000 -0.000 -0.000  0.000
      -0.000  0.894 -0.000  0.000  0.000
      -0.000 -0.000  0.894  0.000  0.000
      -0.000  0.000  0.000  0.973 -0.000
       0.000  0.000  0.000 -0.000  0.894

     Number of occupied Hubbard levels =   17.2930

 ------ SPIN UP ------------


          k = 0.0000 0.0000 0.0000 (   869 PWs)   bands (ev):

    -0.3497   8.6701  13.2922  13.2922  13.2922  19.0749  19.0749  23.0468
    23.0468  23.0468  26.1144  26.1144  26.1144  27.2189  27.2189  30.7925

          k =-0.2500 0.2500-0.2500 (   854 PWs)   bands (ev):

     0.7947   6.1262  14.3150  14.3150  17.1126  18.4340  18.4340  20.1998
    22.8765  22.8765  25.4306  25.4306  26.4076  26.8714  26.8714  27.9986

          k = 0.5000-0.5000 0.5000 (   862 PWs)   bands (ev):

     3.2962   3.3609  16.4823  16.4823  16.8499  16.8499  18.9295  19.0662
    22.7864  22.7864  23.5096  23.5096  25.5671  26.9837  28.0175  28.0175

          k = 0.0000 0.5000 0.0000 (   849 PWs)   bands (ev):

     1.1695   5.7827  14.4901  14.4901  15.8087  18.4788  19.6583  21.0554
    21.0554  23.3901  24.3724  26.2379  26.8840  26.8840  27.1599  28.6572

          k = 0.7500-0.2500 0.7500 (   845 PWs)   bands (ev):

     3.0452   4.1895  13.7746  15.2943  15.9636  18.6041  20.4773  21.0576
    21.3233  22.0391  24.7885  25.0688  25.5722  26.5013  26.9418  28.0899

          k = 0.5000 0.0000 0.5000 (   847 PWs)   bands (ev):

     2.3184   4.6940  14.1118  16.0278  16.2309  17.2121  20.6288  21.2512
    21.3829  22.7838  24.4440  25.1684  25.3109  25.4408  27.2027  28.0474

          k = 0.0000-1.0000 0.0000 (   846 PWs)   bands (ev):

     3.4774   4.2621  11.7101  16.0959  16.0959  19.7856  19.7856  20.2978
    20.6419  24.2921  24.2921  24.8944  25.7041  26.9189  27.1015  27.1893

          k =-0.5000-1.0000 0.0000 (   848 PWs)   bands (ev):

     3.8479   3.8479  13.4838  13.5091  17.8780  17.8780  20.7475  21.0882
    21.1786  21.5216  25.1653  25.1653  26.6813  26.7250  28.0305  28.0523

 ------ SPIN DOWN ----------


          k = 0.0000 0.0000 0.0000 (   869 PWs)   bands (ev):

    -0.3496   8.6701  13.2922  13.2922  13.2922  19.0748  19.0748  23.0468
    23.0468  23.0468  26.1144  26.1144  26.1144  27.2188  27.2188  30.7925

          k =-0.2500 0.2500-0.2500 (   854 PWs)   bands (ev):

     0.7947   6.1262  14.3150  14.3150  17.1126  18.4340  18.4340  20.1998
    22.8765  22.8765  25.4306  25.4306  26.4075  26.8714  26.8714  27.9986

          k = 0.5000-0.5000 0.5000 (   862 PWs)   bands (ev):

     3.2962   3.3610  16.4823  16.4823  16.8499  16.8499  18.9295  19.0662
    22.7863  22.7863  23.5097  23.5097  25.5670  26.9838  28.0175  28.0175

          k = 0.0000 0.5000 0.0000 (   849 PWs)   bands (ev):

     1.1695   5.7828  14.4901  14.4901  15.8087  18.4788  19.6583  21.0554
    21.0554  23.3901  24.3724  26.2379  26.8840  26.8840  27.1599  28.6572

          k = 0.7500-0.2500 0.7500 (   845 PWs)   bands (ev):

     3.0452   4.1895  13.7746  15.2943  15.9636  18.6041  20.4772  21.0575
    21.3233  22.0391  24.7885  25.0687  25.5722  26.5013  26.9418  28.0899

          k = 0.5000 0.0000 0.5000 (   847 PWs)   bands (ev):

     2.3184   4.6940  14.1118  16.0278  16.2309  17.2121  20.6288  21.2512
    21.3828  22.7838  24.4440  25.1684  25.3109  25.4408  27.2026  28.0474

          k = 0.0000-1.0000 0.0000 (   846 PWs)   bands (ev):

     3.4774   4.2621  11.7101  16.0959  16.0959  19.7856  19.7856  20.2978
    20.6418  24.2921  24.2921  24.8944  25.7041  26.9189  27.1015  27.1894

          k =-0.5000-1.0000 0.0000 (   848 PWs)   bands (ev):

     3.8479   3.8479  13.4838  13.5092  17.8780  17.8780  20.7474  21.0882
    21.1786  21.5216  25.1652  25.1652  26.6813  26.7250  28.0305  28.0523

     highest occupied level (ev):    30.7925

!    total energy              =    -263.38501683 Ry
     estimated scf accuracy    <          5.0E-10 Ry

     The total energy is the sum of the following terms:
     one-electron contribution =      46.66040560 Ry
     hartree contribution      =      33.80557783 Ry
     xc contribution           =    -100.10068278 Ry
     ewald contribution        =    -244.10368284 Ry
     Hubbard energy            =       0.35336536 Ry

     total magnetization       =    -0.00 Bohr mag/cell
     absolute magnetization    =     1.32 Bohr mag/cell

     convergence has been achieved in  43 iterations


     Computing stress (Cartesian axis) and pressure

     stres_hub    :      0.22s CPU      0.23s WALL (       1 calls)
     dprojdepsilo :      0.20s CPU      0.21s WALL (     144 calls)
     dprojdeps1   :      0.01s CPU      0.01s WALL (     144 calls)
     dprojdeps2   :      0.13s CPU      0.13s WALL (     144 calls)
     dprojdeps3   :      0.06s CPU      0.07s WALL (     144 calls)
          total   stress  (Ry/bohr**3)                   (kbar)     P=     5702.86
   0.03876724  -0.00000000  -0.00000000         5702.86       -0.00       -0.00
  -0.00000000   0.03876724   0.00000000           -0.00     5702.86        0.00
  -0.00000000   0.00000000   0.03876724           -0.00        0.00     5702.86


     BFGS Geometry Optimization
     Energy error            =      9.7E+00 Ry
     Gradient error          =      0.0E+00 Ry/Bohr
     Cell gradient error     =      5.7E+03 kbar

     number of scf cycles    =   1
     number of bfgs steps    =   0

     enthalpy           new  =    -263.3850168329 Ry

     new trust radius        =       0.5000000000 bohr
     new conv_thr            =       0.0000000010 Ry

     new unit-cell volume =    226.68393 a.u.^3 (    33.59109 Ang^3 )
     density =      7.38467 g/cm^3

CELL_PARAMETERS (alat=  7.90000000)
  -0.612589884   0.000000000   0.612589884
  -0.000000000   0.612589884   0.612589884
  -0.612589884   0.612589884   0.000000000

ATOMIC_POSITIONS (alat)
Ni1             -0.0000000000        0.0000000000        0.0000000000    0   0   0
Ni2              0.6125898840        0.6125898840        0.6125898840    0   0   0
O                0.3062949420        0.3062949420        0.3062949420    0   0   0
O                0.9188848260        0.9188848260        0.9188848260    0   0   0



     Writing config-only to output data dir /Users/kirill/Documents/dft/volume/NiO_struct_opt_dft_U/out/NiO.save/ :
     XML data file
     NEW-OLD atomic charge density approx. for the potential
     New effective cutoffs (rho, wfc):  365.78   36.56

     Check: negative core charge=   -0.000001
     Generating pointlists ...

     Atomic wfc used for Hubbard projectors are orthogonalized


     total cpu time spent up to now is        8.9 secs

     Self-consistent Calculation

     iteration #  1     ecut=    55.00 Ry     beta= 0.30
     Davidson diagonalization with overlap
     c_bands:  5 eigenvalues not converged
     c_bands:  1 eigenvalues not converged
     c_bands:  2 eigenvalues not converged
     c_bands:  1 eigenvalues not converged
     c_bands:  1 eigenvalues not converged
     c_bands:  5 eigenvalues not converged
     c_bands:  1 eigenvalues not converged
     c_bands:  2 eigenvalues not converged
     c_bands:  1 eigenvalues not converged
     ethr =  1.00E-06,  avg # of iterations = 24.8

     =================== HUBBARD OCCUPATIONS ===================
     ------------------------ ATOM    1 ------------------------
     Tr[ns(  1)] (up, down, total) =   4.75330  4.00366  8.75696
     Atomic magnetic moment for atom   1 =   0.74964
     SPIN  1
     eigenvalues:
       0.932  0.932  0.932  0.979  0.979
     eigenvectors (columns):
      -0.000 -0.000  0.000 -0.432  0.902
      -0.261 -0.949  0.176 -0.000 -0.000
      -0.596  0.015 -0.803 -0.000 -0.000
       0.000  0.000 -0.000 -0.902 -0.432
       0.759 -0.314 -0.570  0.000  0.000
     occupation matrix ns (before diag.):
       0.979 -0.000 -0.000 -0.000  0.000
      -0.000  0.932 -0.000  0.000  0.000
      -0.000 -0.000  0.932  0.000  0.000
      -0.000  0.000  0.000  0.979 -0.000
       0.000  0.000  0.000 -0.000  0.932
     SPIN  2
     eigenvalues:
       0.689  0.689  0.689  0.968  0.968
     eigenvectors (columns):
      -0.000 -0.000  0.000 -0.517  0.856
      -0.277 -0.910  0.308 -0.000 -0.000
      -0.621 -0.075 -0.780 -0.000 -0.000
       0.000  0.000 -0.000 -0.856 -0.517
       0.733 -0.408 -0.544  0.000  0.000
     occupation matrix ns (before diag.):
       0.968 -0.000 -0.000 -0.000  0.000
      -0.000  0.689 -0.000  0.000  0.000
      -0.000 -0.000  0.689  0.000  0.000
      -0.000  0.000  0.000  0.968 -0.000
       0.000  0.000  0.000 -0.000  0.689
     ------------------------ ATOM    2 ------------------------
     Tr[ns(  2)] (up, down, total) =   4.00439  4.75408  8.75847
     Atomic magnetic moment for atom   2 =  -0.74969
     SPIN  1
     eigenvalues:
       0.690  0.690  0.690  0.968  0.968
     eigenvectors (columns):
      -0.000 -0.000  0.000 -0.572  0.820
      -0.278 -0.960 -0.021 -0.000 -0.000
      -0.628  0.199 -0.753 -0.000 -0.000
       0.000  0.000 -0.000 -0.820 -0.572
       0.727 -0.196 -0.658  0.000  0.000
     occupation matrix ns (before diag.):
       0.968 -0.000 -0.000 -0.000  0.000
      -0.000  0.690 -0.000  0.000  0.000
      -0.000 -0.000  0.690  0.000  0.000
      -0.000  0.000  0.000  0.968 -0.000
       0.000  0.000  0.000 -0.000  0.690
     SPIN  2
     eigenvalues:
       0.932  0.932  0.932  0.979  0.979
     eigenvectors (columns):
      -0.000 -0.000 -0.000 -0.331  0.944
      -0.272 -0.874 -0.403 -0.000 -0.000
      -0.609 -0.168  0.775 -0.000 -0.000
       0.000  0.000  0.000 -0.944 -0.331
       0.745 -0.456  0.486  0.000  0.000
     occupation matrix ns (before diag.):
       0.979 -0.000 -0.000 -0.000  0.000
      -0.000  0.932 -0.000  0.000  0.000
      -0.000 -0.000  0.932  0.000  0.000
      -0.000  0.000  0.000  0.979 -0.000
       0.000  0.000  0.000 -0.000  0.932

     Number of occupied Hubbard levels =   17.5154

     total cpu time spent up to now is        9.6 secs

     total energy              =    -264.45188338 Ry
     estimated scf accuracy    <       0.14078887 Ry

     total magnetization       =     0.00 Bohr mag/cell
     absolute magnetization    =     1.60 Bohr mag/cell

     iteration #  2     ecut=    55.00 Ry     beta= 0.30
     Davidson diagonalization with overlap
     ethr =  4.40E-04,  avg # of iterations =  5.7

     total cpu time spent up to now is        9.8 secs

     total energy              =    -264.49277975 Ry
     estimated scf accuracy    <       0.21396369 Ry

     total magnetization       =    -0.00 Bohr mag/cell
     absolute magnetization    =     2.63 Bohr mag/cell

     iteration #  3     ecut=    55.00 Ry     beta= 0.30
     Davidson diagonalization with overlap
     ethr =  4.40E-04,  avg # of iterations =  1.1

     total cpu time spent up to now is        9.9 secs

     total energy              =    -264.48694728 Ry
     estimated scf accuracy    <       0.11856397 Ry

     total magnetization       =     0.00 Bohr mag/cell
     absolute magnetization    =     2.63 Bohr mag/cell

     iteration #  4     ecut=    55.00 Ry     beta= 0.30
     Davidson diagonalization with overlap
     ethr =  3.71E-04,  avg # of iterations =  4.6

     total cpu time spent up to now is       10.1 secs

     total energy              =    -264.51242422 Ry
     estimated scf accuracy    <       0.01655384 Ry

     total magnetization       =    -0.00 Bohr mag/cell
     absolute magnetization    =     2.47 Bohr mag/cell

     iteration #  5     ecut=    55.00 Ry     beta= 0.30
     Davidson diagonalization with overlap
     ethr =  5.17E-05,  avg # of iterations =  7.4

     total cpu time spent up to now is       10.3 secs

     total energy              =    -264.52173629 Ry
     estimated scf accuracy    <       0.05088039 Ry

     total magnetization       =     0.00 Bohr mag/cell
     absolute magnetization    =     2.79 Bohr mag/cell

     iteration #  6     ecut=    55.00 Ry     beta= 0.30
     Davidson diagonalization with overlap
     ethr =  5.17E-05,  avg # of iterations =  3.0

     total cpu time spent up to now is       10.4 secs

     total energy              =    -264.51886117 Ry
     estimated scf accuracy    <       0.02564688 Ry

     total magnetization       =     0.00 Bohr mag/cell
     absolute magnetization    =     2.84 Bohr mag/cell

     iteration #  7     ecut=    55.00 Ry     beta= 0.30
     Davidson diagonalization with overlap
     ethr =  5.17E-05,  avg # of iterations =  5.8

     total cpu time spent up to now is       10.6 secs

     total energy              =    -264.52431842 Ry
     estimated scf accuracy    <       0.00209204 Ry

     total magnetization       =    -0.00 Bohr mag/cell
     absolute magnetization    =     2.78 Bohr mag/cell

     iteration #  8     ecut=    55.00 Ry     beta= 0.30
     Davidson diagonalization with overlap
     ethr =  6.54E-06,  avg # of iterations =  5.3

     total cpu time spent up to now is       10.8 secs

     total energy              =    -264.52559688 Ry
     estimated scf accuracy    <       0.00420755 Ry

     total magnetization       =     0.00 Bohr mag/cell
     absolute magnetization    =     2.76 Bohr mag/cell

     iteration #  9     ecut=    55.00 Ry     beta= 0.30
     Davidson diagonalization with overlap
     ethr =  6.54E-06,  avg # of iterations =  1.1

     total cpu time spent up to now is       11.0 secs

     total energy              =    -264.52429119 Ry
     estimated scf accuracy    <       0.00477614 Ry

     total magnetization       =     0.00 Bohr mag/cell
     absolute magnetization    =     2.76 Bohr mag/cell

     iteration # 10     ecut=    55.00 Ry     beta= 0.30
     Davidson diagonalization with overlap
     ethr =  6.54E-06,  avg # of iterations =  3.9

     total cpu time spent up to now is       11.1 secs

     total energy              =    -264.52421927 Ry
     estimated scf accuracy    <       0.00112830 Ry

     total magnetization       =    -0.00 Bohr mag/cell
     absolute magnetization    =     2.77 Bohr mag/cell

     iteration # 11     ecut=    55.00 Ry     beta= 0.30
     Davidson diagonalization with overlap
     ethr =  3.53E-06,  avg # of iterations =  8.4

     total cpu time spent up to now is       11.3 secs

     total energy              =    -264.52517518 Ry
     estimated scf accuracy    <       0.00245461 Ry

     total magnetization       =     0.00 Bohr mag/cell
     absolute magnetization    =     2.87 Bohr mag/cell

     iteration # 12     ecut=    55.00 Ry     beta= 0.30
     Davidson diagonalization with overlap
     ethr =  3.53E-06,  avg # of iterations =  1.1

     total cpu time spent up to now is       11.5 secs

     total energy              =    -264.52551169 Ry
     estimated scf accuracy    <       0.00203786 Ry

     total magnetization       =     0.00 Bohr mag/cell
     absolute magnetization    =     2.87 Bohr mag/cell

     iteration # 13     ecut=    55.00 Ry     beta= 0.30
     Davidson diagonalization with overlap
     ethr =  3.53E-06,  avg # of iterations =  1.5

     total cpu time spent up to now is       11.6 secs

     total energy              =    -264.52489265 Ry
     estimated scf accuracy    <       0.00356765 Ry

     total magnetization       =    -0.00 Bohr mag/cell
     absolute magnetization    =     2.87 Bohr mag/cell

     iteration # 14     ecut=    55.00 Ry     beta= 0.30
     Davidson diagonalization with overlap
     ethr =  3.53E-06,  avg # of iterations =  2.1

     total cpu time spent up to now is       11.8 secs

     total energy              =    -264.52605984 Ry
     estimated scf accuracy    <       0.00194277 Ry

     total magnetization       =    -0.00 Bohr mag/cell
     absolute magnetization    =     2.86 Bohr mag/cell

     iteration # 15     ecut=    55.00 Ry     beta= 0.30
     Davidson diagonalization with overlap
     ethr =  3.53E-06,  avg # of iterations =  6.2

     total cpu time spent up to now is       12.0 secs

     total energy              =    -264.52479489 Ry
     estimated scf accuracy    <       0.01245049 Ry

     total magnetization       =    -0.00 Bohr mag/cell
     absolute magnetization    =     2.91 Bohr mag/cell

     iteration # 16     ecut=    55.00 Ry     beta= 0.30
     Davidson diagonalization with overlap
     ethr =  3.53E-06,  avg # of iterations =  4.9

     total cpu time spent up to now is       12.1 secs

     total energy              =    -264.52622228 Ry
     estimated scf accuracy    <       0.00407434 Ry

     total magnetization       =     0.00 Bohr mag/cell
     absolute magnetization    =     2.88 Bohr mag/cell

     iteration # 17     ecut=    55.00 Ry     beta= 0.30
     Davidson diagonalization with overlap
     ethr =  3.53E-06,  avg # of iterations =  3.1

     total cpu time spent up to now is       12.3 secs

     total energy              =    -264.52323306 Ry
     estimated scf accuracy    <       0.00880179 Ry

     total magnetization       =    -0.00 Bohr mag/cell
     absolute magnetization    =     2.89 Bohr mag/cell

     iteration # 18     ecut=    55.00 Ry     beta= 0.30
     Davidson diagonalization with overlap
     ethr =  3.53E-06,  avg # of iterations =  8.4

     total cpu time spent up to now is       12.6 secs

     total energy              =    -264.52524701 Ry
     estimated scf accuracy    <       0.00152763 Ry

     total magnetization       =     0.00 Bohr mag/cell
     absolute magnetization    =     2.82 Bohr mag/cell

     iteration # 19     ecut=    55.00 Ry     beta= 0.30
     Davidson diagonalization with overlap
     ethr =  3.53E-06,  avg # of iterations =  1.1

     total cpu time spent up to now is       12.7 secs

     total energy              =    -264.52539310 Ry
     estimated scf accuracy    <       0.00160423 Ry

     total magnetization       =    -0.00 Bohr mag/cell
     absolute magnetization    =     2.82 Bohr mag/cell

     iteration # 20     ecut=    55.00 Ry     beta= 0.30
     Davidson diagonalization with overlap
     ethr =  3.53E-06,  avg # of iterations =  1.4

     total cpu time spent up to now is       12.8 secs

     total energy              =    -264.52490965 Ry
     estimated scf accuracy    <       0.00209238 Ry

     total magnetization       =    -0.00 Bohr mag/cell
     absolute magnetization    =     2.82 Bohr mag/cell

     iteration # 21     ecut=    55.00 Ry     beta= 0.30
     Davidson diagonalization with overlap
     ethr =  3.53E-06,  avg # of iterations =  1.1

     total cpu time spent up to now is       13.0 secs

     total energy              =    -264.52472978 Ry
     estimated scf accuracy    <       0.00096871 Ry

     total magnetization       =     0.00 Bohr mag/cell
     absolute magnetization    =     2.82 Bohr mag/cell

     iteration # 22     ecut=    55.00 Ry     beta= 0.30
     Davidson diagonalization with overlap
     ethr =  3.03E-06,  avg # of iterations =  3.9

     total cpu time spent up to now is       13.1 secs

     total energy              =    -264.52496565 Ry
     estimated scf accuracy    <       0.00002358 Ry

     total magnetization       =     0.00 Bohr mag/cell
     absolute magnetization    =     2.84 Bohr mag/cell

     iteration # 23     ecut=    55.00 Ry     beta= 0.30
     Davidson diagonalization with overlap
     ethr =  7.37E-08,  avg # of iterations =  9.0

     total cpu time spent up to now is       13.4 secs

     total energy              =    -264.52497444 Ry
     estimated scf accuracy    <       0.00014855 Ry

     total magnetization       =    -0.00 Bohr mag/cell
     absolute magnetization    =     2.83 Bohr mag/cell

     iteration # 24     ecut=    55.00 Ry     beta= 0.30
     Davidson diagonalization with overlap
     ethr =  7.37E-08,  avg # of iterations =  6.2

     total cpu time spent up to now is       13.6 secs

     total energy              =    -264.52498029 Ry
     estimated scf accuracy    <       0.00000821 Ry

     total magnetization       =     0.00 Bohr mag/cell
     absolute magnetization    =     2.84 Bohr mag/cell

     iteration # 25     ecut=    55.00 Ry     beta= 0.30
     Davidson diagonalization with overlap
     ethr =  2.57E-08,  avg # of iterations = 12.5

     total cpu time spent up to now is       13.9 secs

     total energy              =    -264.52497765 Ry
     estimated scf accuracy    <       0.00016999 Ry

     total magnetization       =    -0.00 Bohr mag/cell
     absolute magnetization    =     2.85 Bohr mag/cell

     iteration # 26     ecut=    55.00 Ry     beta= 0.30
     Davidson diagonalization with overlap
     ethr =  2.57E-08,  avg # of iterations =  8.6

     total cpu time spent up to now is       14.2 secs

     total energy              =    -264.52499233 Ry
     estimated scf accuracy    <       0.00001261 Ry

     total magnetization       =     0.00 Bohr mag/cell
     absolute magnetization    =     2.84 Bohr mag/cell

     iteration # 27     ecut=    55.00 Ry     beta= 0.30
     Davidson diagonalization with overlap
     ethr =  2.57E-08,  avg # of iterations =  1.1

     total cpu time spent up to now is       14.3 secs

     total energy              =    -264.52500117 Ry
     estimated scf accuracy    <       0.00002125 Ry

     total magnetization       =     0.00 Bohr mag/cell
     absolute magnetization    =     2.84 Bohr mag/cell

     iteration # 28     ecut=    55.00 Ry     beta= 0.30
     Davidson diagonalization with overlap
     ethr =  2.57E-08,  avg # of iterations =  6.9

     total cpu time spent up to now is       14.5 secs

     total energy              =    -264.52500656 Ry
     estimated scf accuracy    <       0.00011486 Ry

     total magnetization       =    -0.00 Bohr mag/cell
     absolute magnetization    =     2.85 Bohr mag/cell

     iteration # 29     ecut=    55.00 Ry     beta= 0.30
     Davidson diagonalization with overlap
     ethr =  2.57E-08,  avg # of iterations =  1.1

     total cpu time spent up to now is       14.7 secs

     total energy              =    -264.52499550 Ry
     estimated scf accuracy    <       0.00012010 Ry

     total magnetization       =    -0.00 Bohr mag/cell
     absolute magnetization    =     2.85 Bohr mag/cell

     iteration # 30     ecut=    55.00 Ry     beta= 0.30
     Davidson diagonalization with overlap
     ethr =  2.57E-08,  avg # of iterations =  2.0

     total cpu time spent up to now is       14.8 secs

     total energy              =    -264.52497948 Ry
     estimated scf accuracy    <       0.00008910 Ry

     total magnetization       =     0.00 Bohr mag/cell
     absolute magnetization    =     2.85 Bohr mag/cell

     iteration # 31     ecut=    55.00 Ry     beta= 0.30
     Davidson diagonalization with overlap
     ethr =  2.57E-08,  avg # of iterations =  8.1

     total cpu time spent up to now is       15.0 secs

     total energy              =    -264.52498911 Ry
     estimated scf accuracy    <       0.00000399 Ry

     total magnetization       =     0.00 Bohr mag/cell
     absolute magnetization    =     2.84 Bohr mag/cell

     iteration # 32     ecut=    55.00 Ry     beta= 0.30
     Davidson diagonalization with overlap
     ethr =  1.25E-08,  avg # of iterations =  1.3

     total cpu time spent up to now is       15.2 secs

     total energy              =    -264.52498731 Ry
     estimated scf accuracy    <       0.00000511 Ry

     total magnetization       =    -0.00 Bohr mag/cell
     absolute magnetization    =     2.84 Bohr mag/cell

     iteration # 33     ecut=    55.00 Ry     beta= 0.30
     Davidson diagonalization with overlap
     ethr =  1.25E-08,  avg # of iterations =  7.0

     total cpu time spent up to now is       15.4 secs

     total energy              =    -264.52498992 Ry
     estimated scf accuracy    <       0.00000722 Ry

     total magnetization       =    -0.00 Bohr mag/cell
     absolute magnetization    =     2.84 Bohr mag/cell

     iteration # 34     ecut=    55.00 Ry     beta= 0.30
     Davidson diagonalization with overlap
     ethr =  1.25E-08,  avg # of iterations =  1.2

     total cpu time spent up to now is       15.5 secs

     total energy              =    -264.52499226 Ry
     estimated scf accuracy    <       0.00000753 Ry

     total magnetization       =     0.00 Bohr mag/cell
     absolute magnetization    =     2.84 Bohr mag/cell

     iteration # 35     ecut=    55.00 Ry     beta= 0.30
     Davidson diagonalization with overlap
     ethr =  1.25E-08,  avg # of iterations =  4.9

     total cpu time spent up to now is       15.7 secs

     total energy              =    -264.52499158 Ry
     estimated scf accuracy    <       0.00002509 Ry

     total magnetization       =     0.00 Bohr mag/cell
     absolute magnetization    =     2.84 Bohr mag/cell

     iteration # 36     ecut=    55.00 Ry     beta= 0.30
     Davidson diagonalization with overlap
     ethr =  1.25E-08,  avg # of iterations =  1.0

     total cpu time spent up to now is       15.8 secs

     total energy              =    -264.52497984 Ry
     estimated scf accuracy    <       0.00002186 Ry

     total magnetization       =    -0.00 Bohr mag/cell
     absolute magnetization    =     2.84 Bohr mag/cell

     iteration # 37     ecut=    55.00 Ry     beta= 0.30
     Davidson diagonalization with overlap
     ethr =  1.25E-08,  avg # of iterations = 12.7

     total cpu time spent up to now is       16.2 secs

     total energy              =    -264.52499750 Ry
     estimated scf accuracy    <       0.00005942 Ry

     total magnetization       =     0.00 Bohr mag/cell
     absolute magnetization    =     2.85 Bohr mag/cell

     iteration # 38     ecut=    55.00 Ry     beta= 0.30
     Davidson diagonalization with overlap
     ethr =  1.25E-08,  avg # of iterations =  1.3

     total cpu time spent up to now is       16.3 secs

     total energy              =    -264.52499485 Ry
     estimated scf accuracy    <       0.00005989 Ry

     total magnetization       =    -0.00 Bohr mag/cell
     absolute magnetization    =     2.85 Bohr mag/cell

     iteration # 39     ecut=    55.00 Ry     beta= 0.30
     Davidson diagonalization with overlap
     ethr =  1.25E-08,  avg # of iterations =  1.1

     total cpu time spent up to now is       16.4 secs

     total energy              =    -264.52496672 Ry
     estimated scf accuracy    <       0.00005330 Ry

     total magnetization       =     0.00 Bohr mag/cell
     absolute magnetization    =     2.85 Bohr mag/cell

     iteration # 40     ecut=    55.00 Ry     beta= 0.30
     Davidson diagonalization with overlap
     c_bands:  1 eigenvalues not converged
     ethr =  1.25E-08,  avg # of iterations = 15.6

     total cpu time spent up to now is       16.8 secs

     total energy              =    -264.52498370 Ry
     estimated scf accuracy    <       0.00014253 Ry

     total magnetization       =     0.00 Bohr mag/cell
     absolute magnetization    =     2.83 Bohr mag/cell

     iteration # 41     ecut=    55.00 Ry     beta= 0.30
     Davidson diagonalization with overlap
     ethr =  1.25E-08,  avg # of iterations =  8.4

     total cpu time spent up to now is       17.1 secs

     total energy              =    -264.52498947 Ry
     estimated scf accuracy    <       0.00002272 Ry

     total magnetization       =    -0.00 Bohr mag/cell
     absolute magnetization    =     2.84 Bohr mag/cell

     iteration # 42     ecut=    55.00 Ry     beta= 0.30
     Davidson diagonalization with overlap
     ethr =  1.25E-08,  avg # of iterations =  1.6

     total cpu time spent up to now is       17.2 secs

     total energy              =    -264.52498835 Ry
     estimated scf accuracy    <       0.00001838 Ry

     total magnetization       =    -0.00 Bohr mag/cell
     absolute magnetization    =     2.84 Bohr mag/cell

     iteration # 43     ecut=    55.00 Ry     beta= 0.30
     Davidson diagonalization with overlap
     ethr =  1.25E-08,  avg # of iterations =  3.6

     total cpu time spent up to now is       17.4 secs

     total energy              =    -264.52498630 Ry
     estimated scf accuracy    <       0.00001011 Ry

     total magnetization       =    -0.00 Bohr mag/cell
     absolute magnetization    =     2.84 Bohr mag/cell

     iteration # 44     ecut=    55.00 Ry     beta= 0.30
     Davidson diagonalization with overlap
     ethr =  1.25E-08,  avg # of iterations =  7.9

     total cpu time spent up to now is       17.6 secs

     total energy              =    -264.52498853 Ry
     estimated scf accuracy    <       0.00000721 Ry

     total magnetization       =    -0.00 Bohr mag/cell
     absolute magnetization    =     2.84 Bohr mag/cell

     iteration # 45     ecut=    55.00 Ry     beta= 0.30
     Davidson diagonalization with overlap
     ethr =  1.25E-08,  avg # of iterations =  1.8

     total cpu time spent up to now is       17.8 secs

     total energy              =    -264.52498933 Ry
     estimated scf accuracy    <       0.00000396 Ry

     total magnetization       =    -0.00 Bohr mag/cell
     absolute magnetization    =     2.84 Bohr mag/cell

     iteration # 46     ecut=    55.00 Ry     beta= 0.30
     Davidson diagonalization with overlap
     ethr =  1.24E-08,  avg # of iterations =  1.2

     total cpu time spent up to now is       17.9 secs

     total energy              =    -264.52498878 Ry
     estimated scf accuracy    <       0.00000530 Ry

     total magnetization       =     0.00 Bohr mag/cell
     absolute magnetization    =     2.84 Bohr mag/cell

     iteration # 47     ecut=    55.00 Ry     beta= 0.30
     Davidson diagonalization with overlap
     ethr =  1.24E-08,  avg # of iterations =  1.2

     total cpu time spent up to now is       18.0 secs

     total energy              =    -264.52498852 Ry
     estimated scf accuracy    <       0.00000303 Ry

     total magnetization       =     0.00 Bohr mag/cell
     absolute magnetization    =     2.84 Bohr mag/cell

     iteration # 48     ecut=    55.00 Ry     beta= 0.30
     Davidson diagonalization with overlap
     ethr =  9.48E-09,  avg # of iterations =  1.8

     total cpu time spent up to now is       18.2 secs

     total energy              =    -264.52498824 Ry
     estimated scf accuracy    <       0.00000144 Ry

     total magnetization       =    -0.00 Bohr mag/cell
     absolute magnetization    =     2.84 Bohr mag/cell

     iteration # 49     ecut=    55.00 Ry     beta= 0.30
     Davidson diagonalization with overlap
     ethr =  4.50E-09,  avg # of iterations =  8.6

     total cpu time spent up to now is       18.4 secs

     total energy              =    -264.52498804 Ry
     estimated scf accuracy    <       0.00000467 Ry

     total magnetization       =    -0.00 Bohr mag/cell
     absolute magnetization    =     2.84 Bohr mag/cell

     iteration # 50     ecut=    55.00 Ry     beta= 0.30
     Davidson diagonalization with overlap
     ethr =  4.50E-09,  avg # of iterations =  6.7

     total cpu time spent up to now is       18.6 secs

     total energy              =    -264.52498907 Ry
     estimated scf accuracy    <       0.00000039 Ry

     total magnetization       =    -0.00 Bohr mag/cell
     absolute magnetization    =     2.84 Bohr mag/cell

     iteration # 51     ecut=    55.00 Ry     beta= 0.30
     Davidson diagonalization with overlap
     ethr =  1.21E-09,  avg # of iterations =  7.3

     total cpu time spent up to now is       18.8 secs

     total energy              =    -264.52498809 Ry
     estimated scf accuracy    <       0.00000382 Ry

     total magnetization       =     0.00 Bohr mag/cell
     absolute magnetization    =     2.84 Bohr mag/cell

     iteration # 52     ecut=    55.00 Ry     beta= 0.30
     Davidson diagonalization with overlap
     ethr =  1.21E-09,  avg # of iterations = 10.7

     total cpu time spent up to now is       19.1 secs

     total energy              =    -264.52498858 Ry
     estimated scf accuracy    <       0.00000112 Ry

     total magnetization       =     0.00 Bohr mag/cell
     absolute magnetization    =     2.84 Bohr mag/cell

     iteration # 53     ecut=    55.00 Ry     beta= 0.30
     Davidson diagonalization with overlap
     ethr =  1.21E-09,  avg # of iterations =  8.6

     total cpu time spent up to now is       19.4 secs

     total energy              =    -264.52498884 Ry
     estimated scf accuracy    <       0.00000094 Ry

     total magnetization       =     0.00 Bohr mag/cell
     absolute magnetization    =     2.84 Bohr mag/cell

     iteration # 54     ecut=    55.00 Ry     beta= 0.30
     Davidson diagonalization with overlap
     ethr =  1.21E-09,  avg # of iterations =  3.2

     total cpu time spent up to now is       19.5 secs

     total energy              =    -264.52498887 Ry
     estimated scf accuracy    <       0.00000013 Ry

     total magnetization       =    -0.00 Bohr mag/cell
     absolute magnetization    =     2.84 Bohr mag/cell

     iteration # 55     ecut=    55.00 Ry     beta= 0.30
     Davidson diagonalization with overlap
     ethr =  4.18E-10,  avg # of iterations =  6.6

     total cpu time spent up to now is       19.7 secs

     total energy              =    -264.52498893 Ry
     estimated scf accuracy    <       0.00000009 Ry

     total magnetization       =    -0.00 Bohr mag/cell
     absolute magnetization    =     2.84 Bohr mag/cell

     iteration # 56     ecut=    55.00 Ry     beta= 0.30
     Davidson diagonalization with overlap
     ethr =  2.91E-10,  avg # of iterations =  1.2

     total cpu time spent up to now is       19.9 secs

     total energy              =    -264.52498894 Ry
     estimated scf accuracy    <       0.00000004 Ry

     total magnetization       =    -0.00 Bohr mag/cell
     absolute magnetization    =     2.84 Bohr mag/cell

     iteration # 57     ecut=    55.00 Ry     beta= 0.30
     Davidson diagonalization with overlap
     ethr =  1.30E-10,  avg # of iterations =  1.2

     total cpu time spent up to now is       20.0 secs

     total energy              =    -264.52498893 Ry
     estimated scf accuracy    <       0.00000005 Ry

     total magnetization       =     0.00 Bohr mag/cell
     absolute magnetization    =     2.84 Bohr mag/cell

     iteration # 58     ecut=    55.00 Ry     beta= 0.30
     Davidson diagonalization with overlap
     ethr =  1.30E-10,  avg # of iterations =  1.1

     total cpu time spent up to now is       20.2 secs

     total energy              =    -264.52498893 Ry
     estimated scf accuracy    <       0.00000004 Ry

     total magnetization       =     0.00 Bohr mag/cell
     absolute magnetization    =     2.84 Bohr mag/cell

     iteration # 59     ecut=    55.00 Ry     beta= 0.30
     Davidson diagonalization with overlap
     ethr =  1.10E-10,  avg # of iterations =  4.2

     total cpu time spent up to now is       20.3 secs

     total energy              =    -264.52498893 Ry
     estimated scf accuracy    <          1.4E-09 Ry

     total magnetization       =     0.00 Bohr mag/cell
     absolute magnetization    =     2.84 Bohr mag/cell

     iteration # 60     ecut=    55.00 Ry     beta= 0.30
     Davidson diagonalization with overlap
     ethr =  4.40E-12,  avg # of iterations =  9.1

     total cpu time spent up to now is       20.6 secs

     total energy              =    -264.52498893 Ry
     estimated scf accuracy    <       0.00000001 Ry

     total magnetization       =     0.00 Bohr mag/cell
     absolute magnetization    =     2.84 Bohr mag/cell

     iteration # 61     ecut=    55.00 Ry     beta= 0.30
     Davidson diagonalization with overlap
     ethr =  4.40E-12,  avg # of iterations =  8.7

     total cpu time spent up to now is       20.8 secs

     total energy              =    -264.52498894 Ry
     estimated scf accuracy    <          2.1E-09 Ry

     total magnetization       =     0.00 Bohr mag/cell
     absolute magnetization    =     2.84 Bohr mag/cell

     iteration # 62     ecut=    55.00 Ry     beta= 0.30
     Davidson diagonalization with overlap
     c_bands:  2 eigenvalues not converged
     c_bands:  1 eigenvalues not converged
     c_bands:  1 eigenvalues not converged
     ethr =  4.40E-12,  avg # of iterations = 15.6

     total cpu time spent up to now is       21.2 secs

     total energy              =    -264.52498897 Ry
     estimated scf accuracy    <       0.00000022 Ry

     total magnetization       =    -0.00 Bohr mag/cell
     absolute magnetization    =     2.84 Bohr mag/cell

     iteration # 63     ecut=    55.00 Ry     beta= 0.30
     Davidson diagonalization with overlap
     ethr =  4.40E-12,  avg # of iterations =  3.4

     total cpu time spent up to now is       21.4 secs

     total energy              =    -264.52498891 Ry
     estimated scf accuracy    <       0.00000025 Ry

     total magnetization       =    -0.00 Bohr mag/cell
     absolute magnetization    =     2.84 Bohr mag/cell

     iteration # 64     ecut=    55.00 Ry     beta= 0.30
     Davidson diagonalization with overlap
     c_bands:  1 eigenvalues not converged
     c_bands:  2 eigenvalues not converged
     c_bands:  2 eigenvalues not converged
     c_bands:  1 eigenvalues not converged
     ethr =  4.40E-12,  avg # of iterations = 16.9

     total cpu time spent up to now is       21.8 secs

     total energy              =    -264.52498893 Ry
     estimated scf accuracy    <          1.5E-09 Ry

     total magnetization       =     0.00 Bohr mag/cell
     absolute magnetization    =     2.84 Bohr mag/cell

     iteration # 65     ecut=    55.00 Ry     beta= 0.30
     Davidson diagonalization with overlap
     ethr =  4.40E-12,  avg # of iterations =  2.7

     total cpu time spent up to now is       22.0 secs

     total energy              =    -264.52498893 Ry
     estimated scf accuracy    <          1.1E-09 Ry

     total magnetization       =     0.00 Bohr mag/cell
     absolute magnetization    =     2.84 Bohr mag/cell

     iteration # 66     ecut=    55.00 Ry     beta= 0.30
     Davidson diagonalization with overlap
     ethr =  3.35E-12,  avg # of iterations =  1.6

     total cpu time spent up to now is       22.1 secs

     total energy              =    -264.52498893 Ry
     estimated scf accuracy    <          1.5E-09 Ry

     total magnetization       =    -0.00 Bohr mag/cell
     absolute magnetization    =     2.84 Bohr mag/cell

     iteration # 67     ecut=    55.00 Ry     beta= 0.30
     Davidson diagonalization with overlap
     ethr =  3.35E-12,  avg # of iterations =  1.0

     total cpu time spent up to now is       22.2 secs

     total energy              =    -264.52498893 Ry
     estimated scf accuracy    <          1.1E-09 Ry

     total magnetization       =     0.00 Bohr mag/cell
     absolute magnetization    =     2.84 Bohr mag/cell

     iteration # 68     ecut=    55.00 Ry     beta= 0.30
     Davidson diagonalization with overlap
     ethr =  3.35E-12,  avg # of iterations =  1.0

     total cpu time spent up to now is       22.4 secs

     total energy              =    -264.52498893 Ry
     estimated scf accuracy    <          1.1E-09 Ry

     total magnetization       =    -0.00 Bohr mag/cell
     absolute magnetization    =     2.84 Bohr mag/cell

     iteration # 69     ecut=    55.00 Ry     beta= 0.30
     Davidson diagonalization with overlap
     ethr =  3.28E-12,  avg # of iterations =  7.0

     total cpu time spent up to now is       22.6 secs

     total energy              =    -264.52498893 Ry
     estimated scf accuracy    <          1.8E-09 Ry

     total magnetization       =    -0.00 Bohr mag/cell
     absolute magnetization    =     2.84 Bohr mag/cell

     iteration # 70     ecut=    55.00 Ry     beta= 0.30
     Davidson diagonalization with overlap
     ethr =  3.28E-12,  avg # of iterations =  1.4

     total cpu time spent up to now is       22.7 secs

     total energy              =    -264.52498893 Ry
     estimated scf accuracy    <          1.9E-09 Ry

     total magnetization       =     0.00 Bohr mag/cell
     absolute magnetization    =     2.84 Bohr mag/cell

     iteration # 71     ecut=    55.00 Ry     beta= 0.30
     Davidson diagonalization with overlap
     ethr =  3.28E-12,  avg # of iterations =  1.1

     total cpu time spent up to now is       22.9 secs

     total energy              =    -264.52498893 Ry
     estimated scf accuracy    <          2.2E-09 Ry

     total magnetization       =     0.00 Bohr mag/cell
     absolute magnetization    =     2.84 Bohr mag/cell

     iteration # 72     ecut=    55.00 Ry     beta= 0.30
     Davidson diagonalization with overlap
     ethr =  3.28E-12,  avg # of iterations =  1.0

     total cpu time spent up to now is       23.0 secs

     total energy              =    -264.52498893 Ry
     estimated scf accuracy    <          2.1E-09 Ry

     total magnetization       =     0.00 Bohr mag/cell
     absolute magnetization    =     2.84 Bohr mag/cell

     iteration # 73     ecut=    55.00 Ry     beta= 0.30
     Davidson diagonalization with overlap
     ethr =  3.28E-12,  avg # of iterations =  1.4

     total cpu time spent up to now is       23.1 secs

     total energy              =    -264.52498893 Ry
     estimated scf accuracy    <          1.1E-09 Ry

     total magnetization       =     0.00 Bohr mag/cell
     absolute magnetization    =     2.84 Bohr mag/cell

     iteration # 74     ecut=    55.00 Ry     beta= 0.30
     Davidson diagonalization with overlap
     ethr =  3.28E-12,  avg # of iterations =  1.0

     total cpu time spent up to now is       23.3 secs

     total energy              =    -264.52498893 Ry
     estimated scf accuracy    <          1.6E-09 Ry

     total magnetization       =     0.00 Bohr mag/cell
     absolute magnetization    =     2.84 Bohr mag/cell

     iteration # 75     ecut=    55.00 Ry     beta= 0.30
     Davidson diagonalization with overlap
     ethr =  3.28E-12,  avg # of iterations =  1.6

     Magnetic moment per site  (integrated on atomic sphere of radius R)
     atom   1 (R=0.179)  charge=  7.1646  magn=  1.2772
     atom   2 (R=0.179)  charge=  7.1645  magn= -1.2771
     atom   3 (R=0.179)  charge=  4.8834  magn= -0.0000
     atom   4 (R=0.179)  charge=  4.8834  magn= -0.0000

     total cpu time spent up to now is       23.4 secs

     End of self-consistent calculation

     =================== HUBBARD OCCUPATIONS ===================
     ------------------------ ATOM    1 ------------------------
     Tr[ns(  1)] (up, down, total) =   4.91695  3.56880  8.48575
     Atomic magnetic moment for atom   1 =   1.34815
     SPIN  1
     eigenvalues:
       0.983  0.983  0.983  0.984  0.984
     eigenvectors (columns):
      -0.000 -0.000 -0.000  0.178 -0.984
      -0.276 -0.876 -0.395  0.000  0.000
      -0.618 -0.153  0.771  0.000  0.000
       0.000  0.000  0.000  0.984  0.178
       0.736 -0.457  0.500 -0.000 -0.000
     occupation matrix ns (before diag.):
       0.984 -0.000 -0.000 -0.000  0.000
      -0.000  0.983 -0.000  0.000  0.000
      -0.000 -0.000  0.983  0.000  0.000
      -0.000  0.000  0.000  0.984 -0.000
       0.000  0.000  0.000 -0.000  0.983
     SPIN  2
     eigenvalues:
       0.541  0.541  0.541  0.972  0.972
     eigenvectors (columns):
      -0.000  0.000  0.000 -0.407  0.913
      -0.280  0.934  0.221 -0.000 -0.000
      -0.628 -0.004 -0.778 -0.000 -0.000
       0.000 -0.000 -0.000 -0.913 -0.407
       0.726  0.356 -0.588  0.000  0.000
     occupation matrix ns (before diag.):
       0.972 -0.000 -0.000 -0.000  0.000
      -0.000  0.541 -0.000  0.000  0.000
      -0.000 -0.000  0.541  0.000  0.000
      -0.000  0.000  0.000  0.972 -0.000
       0.000  0.000  0.000 -0.000  0.541
     ------------------------ ATOM    2 ------------------------
     Tr[ns(  2)] (up, down, total) =   3.56882  4.91695  8.48577
     Atomic magnetic moment for atom   2 =  -1.34813
     SPIN  1
     eigenvalues:
       0.541  0.541  0.541  0.972  0.972
     eigenvectors (columns):
      -0.000 -0.000  0.000 -0.351  0.936
      -0.275 -0.956  0.107 -0.000 -0.000
      -0.572  0.073 -0.817 -0.000 -0.000
       0.000  0.000 -0.000 -0.936 -0.351
       0.773 -0.285 -0.567  0.000  0.000
     occupation matrix ns (before diag.):
       0.972 -0.000 -0.000 -0.000  0.000
      -0.000  0.541 -0.000  0.000  0.000
      -0.000 -0.000  0.541  0.000  0.000
      -0.000  0.000  0.000  0.972 -0.000
       0.000  0.000  0.000 -0.000  0.541
     SPIN  2
     eigenvalues:
       0.983  0.983  0.983  0.984  0.984
     eigenvectors (columns):
      -0.000 -0.000 -0.000 -0.275  0.961
      -0.273 -0.848 -0.454 -0.000 -0.000
      -0.600 -0.219  0.769 -0.000 -0.000
       0.000  0.000  0.000 -0.961 -0.275
       0.752 -0.483  0.449  0.000  0.000
     occupation matrix ns (before diag.):
       0.984 -0.000 -0.000 -0.000  0.000
      -0.000  0.983 -0.000  0.000  0.000
      -0.000 -0.000  0.983  0.000  0.000
      -0.000  0.000  0.000  0.984 -0.000
       0.000  0.000  0.000 -0.000  0.983

     Number of occupied Hubbard levels =   16.9715

 ------ SPIN UP ------------


          k = 0.0000 0.0000 0.0000 (   869 PWs)   bands (ev):

    -7.7198  -4.3584   5.1874   5.1874   5.1874   7.4332   7.4332  10.1978
    10.1978  10.1978  10.3488  10.3488  10.3488  10.6136  10.6136  13.8318

          k =-0.2041 0.2041-0.2041 (   854 PWs)   bands (ev):

    -7.2113  -4.9312   5.6366   5.6366   6.3026   7.3545   7.3545   8.0699
     9.2830   9.2830  10.0142  10.2531  10.2531  10.9081  10.9081  12.7403

          k = 0.4081-0.4081 0.4081 (   862 PWs)   bands (ev):

    -6.0875  -6.0414   6.3066   6.3066   7.1864   7.2638   7.2638   7.3361
     8.4107   8.4107   8.8711   9.9353   9.9353  11.1465  11.1465  12.2986

          k =-0.0000 0.4081-0.0000 (   849 PWs)   bands (ev):

    -7.0751  -5.0083   5.6467   5.6467   5.8069   6.9335   7.6167   8.7084
     8.7084   8.9446   9.9416  10.5083  10.6027  11.0360  11.0360  13.1937

          k = 0.6122-0.2041 0.6122 (   845 PWs)   bands (ev):

    -6.2965  -5.6684   4.7736   5.8771   6.2871   7.5808   7.9447   8.0515
[...]

     total magnetization       =    -0.00 Bohr mag/cell
     absolute magnetization    =     2.81 Bohr mag/cell

     iteration # 98     ecut=    55.00 Ry     beta= 0.30
     Davidson diagonalization with overlap
     ethr =  7.49E-13,  avg # of iterations =  1.4

     total cpu time spent up to now is       69.9 secs

     total energy              =    -264.55298887 Ry
     estimated scf accuracy    <          1.1E-09 Ry

     total magnetization       =    -0.00 Bohr mag/cell
     absolute magnetization    =     2.81 Bohr mag/cell

     iteration # 99     ecut=    55.00 Ry     beta= 0.30
     Davidson diagonalization with overlap
     ethr =  7.49E-13,  avg # of iterations =  2.8

     total cpu time spent up to now is       70.2 secs

     total energy              =    -264.55298887 Ry
     estimated scf accuracy    <          2.0E-09 Ry

     total magnetization       =    -0.00 Bohr mag/cell
     absolute magnetization    =     2.81 Bohr mag/cell

     iteration #100     ecut=    55.00 Ry     beta= 0.30
     Davidson diagonalization with overlap
     ethr =  7.49E-13,  avg # of iterations =  3.6

     total cpu time spent up to now is       70.4 secs

     total energy              =    -264.55298887 Ry
     estimated scf accuracy    <          3.1E-09 Ry

     total magnetization       =    -0.00 Bohr mag/cell
     absolute magnetization    =     2.81 Bohr mag/cell

     iteration #101     ecut=    55.00 Ry     beta= 0.30
     Davidson diagonalization with overlap
     ethr =  7.49E-13,  avg # of iterations =  5.6

     total cpu time spent up to now is       70.8 secs

     total energy              =    -264.55298887 Ry
     estimated scf accuracy    <          5.3E-09 Ry

     total magnetization       =     0.00 Bohr mag/cell
     absolute magnetization    =     2.81 Bohr mag/cell

     iteration #102     ecut=    55.00 Ry     beta= 0.30
     Davidson diagonalization with overlap
     ethr =  7.49E-13,  avg # of iterations =  9.9

     total cpu time spent up to now is       71.2 secs

     total energy              =    -264.55298887 Ry
     estimated scf accuracy    <       0.00000001 Ry

     total magnetization       =    -0.00 Bohr mag/cell
     absolute magnetization    =     2.81 Bohr mag/cell

     iteration #103     ecut=    55.00 Ry     beta= 0.30
     Davidson diagonalization with overlap
     ethr =  7.49E-13,  avg # of iterations =  2.3

     total cpu time spent up to now is       71.5 secs

     total energy              =    -264.55298887 Ry
     estimated scf accuracy    <       0.00000001 Ry

     total magnetization       =     0.00 Bohr mag/cell
     absolute magnetization    =     2.81 Bohr mag/cell

     iteration #104     ecut=    55.00 Ry     beta= 0.30
     Davidson diagonalization with overlap
     ethr =  7.49E-13,  avg # of iterations =  2.6

     total cpu time spent up to now is       71.8 secs

     total energy              =    -264.55298887 Ry
     estimated scf accuracy    <       0.00000001 Ry

     total magnetization       =    -0.00 Bohr mag/cell
     absolute magnetization    =     2.81 Bohr mag/cell

     iteration #105     ecut=    55.00 Ry     beta= 0.30
     Davidson diagonalization with overlap
     ethr =  7.49E-13,  avg # of iterations =  1.8

     total cpu time spent up to now is       72.0 secs

     total energy              =    -264.55298887 Ry
     estimated scf accuracy    <          9.3E-09 Ry

     total magnetization       =    -0.00 Bohr mag/cell
     absolute magnetization    =     2.81 Bohr mag/cell

     iteration #106     ecut=    55.00 Ry     beta= 0.30
     Davidson diagonalization with overlap
     ethr =  7.49E-13,  avg # of iterations = 10.4

     total cpu time spent up to now is       72.5 secs

     total energy              =    -264.55298887 Ry
     estimated scf accuracy    <          1.9E-09 Ry

     total magnetization       =    -0.00 Bohr mag/cell
     absolute magnetization    =     2.81 Bohr mag/cell

     iteration #107     ecut=    55.00 Ry     beta= 0.30
     Davidson diagonalization with overlap
     ethr =  7.49E-13,  avg # of iterations =  1.5

     total cpu time spent up to now is       72.7 secs

     total energy              =    -264.55298887 Ry
     estimated scf accuracy    <          1.9E-09 Ry

     total magnetization       =     0.00 Bohr mag/cell
     absolute magnetization    =     2.81 Bohr mag/cell

     iteration #108     ecut=    55.00 Ry     beta= 0.30
     Davidson diagonalization with overlap
     ethr =  7.49E-13,  avg # of iterations =  6.4

     total cpu time spent up to now is       73.1 secs

     total energy              =    -264.55298887 Ry
     estimated scf accuracy    <          3.8E-10 Ry

     total magnetization       =     0.00 Bohr mag/cell
     absolute magnetization    =     2.81 Bohr mag/cell

     iteration #109     ecut=    55.00 Ry     beta= 0.30
     Davidson diagonalization with overlap
     ethr =  7.49E-13,  avg # of iterations =  4.9

     total cpu time spent up to now is       73.4 secs

     total energy              =    -264.55298887 Ry
     estimated scf accuracy    <          1.3E-10 Ry

     total magnetization       =    -0.00 Bohr mag/cell
     absolute magnetization    =     2.81 Bohr mag/cell

     iteration #110     ecut=    55.00 Ry     beta= 0.30
     Davidson diagonalization with overlap
     ethr =  3.95E-13,  avg # of iterations =  7.6

     total cpu time spent up to now is       73.7 secs

     total energy              =    -264.55298887 Ry
     estimated scf accuracy    <          3.6E-10 Ry

     total magnetization       =     0.00 Bohr mag/cell
     absolute magnetization    =     2.81 Bohr mag/cell

     iteration #111     ecut=    55.00 Ry     beta= 0.30
     Davidson diagonalization with overlap
     ethr =  3.95E-13,  avg # of iterations =  1.4

     total cpu time spent up to now is       74.0 secs

     total energy              =    -264.55298887 Ry
     estimated scf accuracy    <          2.2E-10 Ry

     total magnetization       =     0.00 Bohr mag/cell
     absolute magnetization    =     2.81 Bohr mag/cell

     iteration #112     ecut=    55.00 Ry     beta= 0.30
     Davidson diagonalization with overlap
     ethr =  3.95E-13,  avg # of iterations =  6.5

     total cpu time spent up to now is       74.3 secs

     total energy              =    -264.55298887 Ry
     estimated scf accuracy    <          1.1E-09 Ry

     total magnetization       =    -0.00 Bohr mag/cell
     absolute magnetization    =     2.81 Bohr mag/cell

     iteration #113     ecut=    55.00 Ry     beta= 0.30
     Davidson diagonalization with overlap
     ethr =  3.95E-13,  avg # of iterations =  1.1

     total cpu time spent up to now is       74.6 secs

     total energy              =    -264.55298887 Ry
     estimated scf accuracy    <          9.6E-10 Ry

     total magnetization       =     0.00 Bohr mag/cell
     absolute magnetization    =     2.81 Bohr mag/cell

     iteration #114     ecut=    55.00 Ry     beta= 0.30
     Davidson diagonalization with overlap
     ethr =  3.95E-13,  avg # of iterations = 11.2

     total cpu time spent up to now is       75.1 secs

     total energy              =    -264.55298887 Ry
     estimated scf accuracy    <          3.3E-10 Ry

     total magnetization       =    -0.00 Bohr mag/cell
     absolute magnetization    =     2.81 Bohr mag/cell

     iteration #115     ecut=    55.00 Ry     beta= 0.30
     Davidson diagonalization with overlap
     ethr =  3.95E-13,  avg # of iterations =  1.2

     total cpu time spent up to now is       75.3 secs

     total energy              =    -264.55298887 Ry
     estimated scf accuracy    <          2.4E-10 Ry

     total magnetization       =     0.00 Bohr mag/cell
     absolute magnetization    =     2.81 Bohr mag/cell

     iteration #116     ecut=    55.00 Ry     beta= 0.30
     Davidson diagonalization with overlap
     ethr =  3.95E-13,  avg # of iterations =  1.0

     total cpu time spent up to now is       75.6 secs

     total energy              =    -264.55298887 Ry
     estimated scf accuracy    <          2.4E-10 Ry

     total magnetization       =     0.00 Bohr mag/cell
     absolute magnetization    =     2.81 Bohr mag/cell

     iteration #117     ecut=    55.00 Ry     beta= 0.30
     Davidson diagonalization with overlap
     ethr =  3.95E-13,  avg # of iterations =  1.4

     total cpu time spent up to now is       75.8 secs

     total energy              =    -264.55298887 Ry
     estimated scf accuracy    <          3.8E-10 Ry

     total magnetization       =     0.00 Bohr mag/cell
     absolute magnetization    =     2.81 Bohr mag/cell

     iteration #118     ecut=    55.00 Ry     beta= 0.30
     Davidson diagonalization with overlap
     ethr =  3.95E-13,  avg # of iterations =  3.4

     total cpu time spent up to now is       76.1 secs

     total energy              =    -264.55298887 Ry
     estimated scf accuracy    <          8.3E-11 Ry

     total magnetization       =     0.00 Bohr mag/cell
     absolute magnetization    =     2.81 Bohr mag/cell

     iteration #119     ecut=    55.00 Ry     beta= 0.30
     Davidson diagonalization with overlap
     ethr =  2.58E-13,  avg # of iterations =  5.9

     Magnetic moment per site  (integrated on atomic sphere of radius R)
     atom   1 (R=0.179)  charge=  7.1754  magn=  1.2653
     atom   2 (R=0.179)  charge=  7.1754  magn= -1.2653
     atom   3 (R=0.179)  charge=  4.9047  magn= -0.0000
     atom   4 (R=0.179)  charge=  4.9047  magn= -0.0000

     total cpu time spent up to now is       76.4 secs

     End of self-consistent calculation

     =================== HUBBARD OCCUPATIONS ===================
     ------------------------ ATOM    1 ------------------------
     Tr[ns(  1)] (up, down, total) =   4.91279  3.58008  8.49287
     Atomic magnetic moment for atom   1 =   1.33272
     SPIN  1
     eigenvalues:
       0.982  0.982  0.982  0.984  0.984
     eigenvectors (columns):
      -0.000 -0.000  0.000 -0.433  0.901
      -0.278 -0.932  0.233 -0.000 -0.000
      -0.582 -0.030 -0.813 -0.000 -0.000
       0.000  0.000 -0.000 -0.901 -0.433
       0.764 -0.361 -0.534  0.000  0.000
     occupation matrix ns (before diag.):
       0.984 -0.000 -0.000 -0.000  0.000
      -0.000  0.982 -0.000  0.000  0.000
      -0.000 -0.000  0.982  0.000  0.000
      -0.000  0.000  0.000  0.984 -0.000
       0.000  0.000  0.000 -0.000  0.982
     SPIN  2
     eigenvalues:
       0.546  0.546  0.546  0.972  0.972
     eigenvectors (columns):
      -0.000 -0.000  0.000  0.282 -0.959
      -0.280 -0.949  0.144  0.000  0.000
      -0.592  0.053 -0.804  0.000  0.000
       0.000  0.000 -0.000  0.959  0.282
       0.755 -0.311 -0.577 -0.000 -0.000
     occupation matrix ns (before diag.):
       0.972 -0.000 -0.000 -0.000  0.000
      -0.000  0.546 -0.000  0.000  0.000
      -0.000 -0.000  0.546  0.000  0.000
      -0.000  0.000  0.000  0.972 -0.000
       0.000  0.000  0.000 -0.000  0.546
     ------------------------ ATOM    2 ------------------------
     Tr[ns(  2)] (up, down, total) =   3.58008  4.91279  8.49287
     Atomic magnetic moment for atom   2 =  -1.33271
     SPIN  1
     eigenvalues:
       0.546  0.546  0.546  0.972  0.972
     eigenvectors (columns):
      -0.000  0.000  0.000  0.270 -0.963
      -0.274  0.959 -0.073  0.000  0.000
      -0.576 -0.225 -0.786  0.000  0.000
       0.000 -0.000 -0.000  0.963  0.270
       0.770  0.173 -0.614 -0.000 -0.000
     occupation matrix ns (before diag.):
       0.972 -0.000 -0.000 -0.000  0.000
      -0.000  0.546 -0.000  0.000  0.000
      -0.000 -0.000  0.546  0.000  0.000
      -0.000  0.000  0.000  0.972 -0.000
       0.000  0.000  0.000 -0.000  0.546
     SPIN  2
     eigenvalues:
       0.982  0.982  0.982  0.984  0.984
     eigenvectors (columns):
      -0.000  0.000 -0.000 -0.267  0.964
      -0.265 -0.296 -0.918 -0.000 -0.000
      -0.629 -0.669  0.397 -0.000 -0.000
       0.000 -0.000  0.000 -0.964 -0.267
       0.731 -0.682  0.009  0.000  0.000
     occupation matrix ns (before diag.):
       0.984 -0.000 -0.000 -0.000  0.000
      -0.000  0.982 -0.000  0.000  0.000
      -0.000 -0.000  0.982  0.000  0.000
      -0.000  0.000  0.000  0.984 -0.000
       0.000  0.000  0.000 -0.000  0.982

     Number of occupied Hubbard levels =   16.9857

 ------ SPIN UP ------------


          k = 0.0000 0.0000 0.0000 (  1471 PWs)   bands (ev):

    -7.4895  -3.9664   5.4322   5.4322   5.4322   7.7831   7.7831  10.5602
    10.5602  10.5602  10.7888  10.7888  10.7888  11.0754  11.0754  14.2938

          k =-0.2057 0.2057-0.2057 (  1525 PWs)   bands (ev):

    -6.9605  -4.5762   5.8966   5.8966   6.5983   7.6862   7.6862   8.4131
     9.6760   9.6760  10.4615  10.6810  10.6810  11.3417  11.3417  13.1658

          k = 0.4113-0.4113 0.4113 (  1502 PWs)   bands (ev):

    -5.7887  -5.7408   6.6086   6.6086   7.5068   7.5438   7.5438   7.6581
     8.8209   8.8209   9.3270  10.3303  10.3303  11.6002  11.6002  12.7098

          k =-0.0000 0.4113-0.0000 (  1523 PWs)   bands (ev):

    -6.8174  -4.6583   5.9027   5.9027   6.0886   7.2633   7.9759   9.0716
     9.0716   9.3577  10.3513  10.9328  11.0632  11.4599  11.4599  13.6258

          k = 0.6170-0.2057 0.6170 (  1527 PWs)   bands (ev):

    -6.0039  -5.3510   5.0204   6.1410   6.5589   7.9058   8.3202   8.4348
     8.7241   9.1125  10.1431  10.6875  11.0152  11.1037  11.2401  12.9862

          k = 0.4113-0.0000 0.4113 (  1522 PWs)   bands (ev):

    -6.2677  -5.1756   5.4757   6.4099   6.7154   7.1910   8.3561   8.5483
     9.0452   9.2522   9.8936  10.6692  10.8497  10.9938  11.0356  12.9659

          k = 0.0000-0.8227 0.0000 (  1524 PWs)   bands (ev):

    -5.9742  -5.2226   3.8900   6.6581   6.6581   8.0335   8.0335   8.1746
     8.3600   9.2422  10.8708  10.8708  11.0530  11.1676  11.6111  12.7730

          k =-0.4113-0.8227-0.0000 (  1540 PWs)   bands (ev):

    -5.6178  -5.6178   4.9525   5.0005   7.5362   7.5362   8.1476   8.4444
     8.6668   9.9668   9.9668  10.2511  11.0002  11.1288  12.3207  12.9162

 ------ SPIN DOWN ----------


          k = 0.0000 0.0000 0.0000 (  1471 PWs)   bands (ev):

    -7.4895  -3.9664   5.4322   5.4322   5.4322   7.7832   7.7832  10.5602
    10.5602  10.5602  10.7888  10.7888  10.7888  11.0754  11.0754  14.2938

          k =-0.2057 0.2057-0.2057 (  1525 PWs)   bands (ev):

    -6.9605  -4.5763   5.8966   5.8966   6.5983   7.6862   7.6862   8.4131
     9.6760   9.6760  10.4615  10.6810  10.6810  11.3417  11.3417  13.1658

          k = 0.4113-0.4113 0.4113 (  1502 PWs)   bands (ev):

    -5.7887  -5.7408   6.6086   6.6086   7.5068   7.5438   7.5438   7.6581
     8.8209   8.8209   9.3270  10.3303  10.3303  11.6002  11.6002  12.7098

          k =-0.0000 0.4113-0.0000 (  1523 PWs)   bands (ev):

    -6.8174  -4.6583   5.9027   5.9027   6.0886   7.2633   7.9759   9.0716
     9.0716   9.3577  10.3513  10.9328  11.0632  11.4599  11.4599  13.6258

          k = 0.6170-0.2057 0.6170 (  1527 PWs)   bands (ev):

    -6.0039  -5.3510   5.0204   6.1410   6.5589   7.9058   8.3202   8.4348
     8.7241   9.1125  10.1431  10.6875  11.0152  11.1037  11.2401  12.9862

          k = 0.4113-0.0000 0.4113 (  1522 PWs)   bands (ev):

    -6.2677  -5.1756   5.4757   6.4099   6.7154   7.1910   8.3561   8.5483
     9.0452   9.2522   9.8936  10.6692  10.8497  10.9938  11.0356  12.9659

          k = 0.0000-0.8227 0.0000 (  1524 PWs)   bands (ev):

    -5.9742  -5.2227   3.8900   6.6581   6.6581   8.0335   8.0335   8.1746
     8.3600   9.2422  10.8708  10.8708  11.0530  11.1676  11.6111  12.7730

          k =-0.4113-0.8227-0.0000 (  1540 PWs)   bands (ev):

    -5.6178  -5.6178   4.9525   5.0005   7.5362   7.5362   8.1476   8.4444
     8.6668   9.9668   9.9668  10.2511  11.0002  11.1288  12.3207  12.9162

     highest occupied level (ev):    14.2938

!    total energy              =    -264.55298887 Ry
     estimated scf accuracy    <          5.6E-12 Ry

     The total energy is the sum of the following terms:
     one-electron contribution =     -15.32223331 Ry
     hartree contribution      =      48.69419403 Ry
     xc contribution           =     -97.40916305 Ry
     ewald contribution        =    -200.81484032 Ry
     Hubbard energy            =       0.29905377 Ry

     total magnetization       =    -0.00 Bohr mag/cell
     absolute magnetization    =     2.81 Bohr mag/cell

     convergence has been achieved in 119 iterations


     Computing stress (Cartesian axis) and pressure

     stres_hub    :      1.43s CPU      1.48s WALL (       6 calls)
     dprojdepsilo :      1.30s CPU      1.35s WALL (     864 calls)
     dprojdeps1   :      0.07s CPU      0.07s WALL (     864 calls)
     dprojdeps2   :      0.83s CPU      0.86s WALL (     864 calls)
     dprojdeps3   :      0.40s CPU      0.42s WALL (     864 calls)
          total   stress  (Ry/bohr**3)                   (kbar)     P=      109.32
   0.00074311   0.00000000   0.00000000          109.32        0.00        0.00
   0.00000000   0.00074311  -0.00000000            0.00      109.32       -0.00
   0.00000000  -0.00000000   0.00074311            0.00       -0.00      109.32


     Writing all to output data dir /Users/kirill/Documents/dft/volume/NiO_struct_opt_dft_U/out/NiO.save/ :
     XML data file, charge density, pseudopotentials, collected wavefunctions

     init_run     :      0.58s CPU      0.59s WALL (       2 calls)
     electrons    :     72.48s CPU     73.59s WALL (       6 calls)
     update_pot   :      0.07s CPU      0.07s WALL (       4 calls)
     stress       :      2.53s CPU      2.58s WALL (       6 calls)

     Called by init_run:
     wfcinit      :      0.16s CPU      0.16s WALL (       2 calls)
     potinit      :      0.06s CPU      0.06s WALL (       2 calls)
     hinit0       :      0.27s CPU      0.27s WALL (       2 calls)

     Called by electrons:
     c_bands      :     44.30s CPU     45.23s WALL (     295 calls)
     sum_band     :     16.45s CPU     16.58s WALL (     295 calls)
     v_of_rho     :      4.91s CPU      4.92s WALL (     298 calls)
     newd         :      6.01s CPU      6.03s WALL (     298 calls)
     mix_rho      :      0.53s CPU      0.54s WALL (     295 calls)

     Called by c_bands:
     init_us_2    :      0.46s CPU      0.46s WALL (    9760 calls)
     cegterg      :     43.03s CPU     43.94s WALL (    4732 calls)

     Called by *egterg:
     cdiaghg      :      4.33s CPU      4.34s WALL (   28590 calls)
     h_psi        :     33.82s CPU     34.53s WALL (   28746 calls)
     s_psi        :      0.88s CPU      0.90s WALL (   29034 calls)
     g_psi        :      0.07s CPU      0.08s WALL (   23982 calls)

     Called by h_psi:
     h_psi:calbec :      1.57s CPU      1.61s WALL (   28746 calls)
     vloc_psi     :     29.83s CPU     30.40s WALL (   28746 calls)
                                        0.00s GPU  (   28746 calls)
     add_vuspsi   :      0.93s CPU      0.94s WALL (   28746 calls)
     vhpsi        :      1.43s CPU      1.48s WALL (   28746 calls)

     General routines
     calbec       :      3.98s CPU      4.10s WALL (   97076 calls)
     fft          :      3.45s CPU      3.47s WALL (    7574 calls)
     ffts         :      0.12s CPU      0.12s WALL (    1186 calls)
     fftw         :     32.66s CPU     33.18s WALL (  582516 calls)
     interpolate  :      0.27s CPU      0.28s WALL (     596 calls)

     Parallel routines

     Hubbard U routines
     new_ns       :      0.24s CPU      0.25s WALL (     295 calls)
     vhpsi        :      1.43s CPU      1.48s WALL (   28746 calls)
     stres_hub    :      1.43s CPU      1.48s WALL (       6 calls)

     PWSCF        :   1m15.90s CPU   1m17.09s WALL


   This run was terminated on:  20: 9:51  25Feb2026            

=------------------------------------------------------------------------------=
   JOB DONE.
=------------------------------------------------------------------------------=
