
     Program PWSCF v.7.5 starts on 24Mar2026 at 19:53:27 

     This program is part of the open-source Quantum ESPRESSO suite
     for quantum simulation of materials; please cite
         "P. Giannozzi et al., J. Phys.:Condens. Matter 21 395502 (2009);
         "P. Giannozzi et al., J. Phys.:Condens. Matter 29 465901 (2017);
         "P. Giannozzi et al., J. Chem. Phys. 152 154105 (2020);
          URL http://www.quantum-espresso.org", 
     in publications or presentations arising from this work. More details at
     http://www.quantum-espresso.org/quote

     Parallel version (MPI), running on     5 processors

     MPI processes distributed on     1 nodes
     0 MiB available memory on the printing compute node when the environment starts

     Reading input from NiO.vc_relax_dft_U.in

     Current dimensions of program PWSCF are:
     Max number of different atomic species (ntypx) = 10
     Max number of k-points (npk) =  40000
     Max angular momentum in pseudopotentials (lmaxx) =  4
     file Ni.pbesol-n-kjpaw_psl.0.1.UPF: wavefunction(s)  4S 3D renormalized
     file Ni.pbesol-n-kjpaw_psl.0.1.UPF: wavefunction(s)  4S 3D renormalized
     file O.pbesol-n-kjpaw_psl.1.0.0.UPF: wavefunction(s)  2S 2P renormalized

     R & G space division:  proc/nbgrp/npool/nimage =       5
     Subspace diagonalization in iterative solution of the eigenvalue problem:
     a serial algorithm will be used


     Parallelization info
     --------------------
     sticks:   dense  smooth     PW     G-vecs:    dense   smooth      PW
     Min         235      95     30                 5362     1371     248
     Max         236      95     31                 5364     1371     251
     Sum        1177     475    151                26813     6855    1243

     Using Slab Decomposition



     bravais-lattice index     =            2
     lattice parameter (alat)  =       7.9000  a.u.
     unit-cell volume          =     123.2598 (a.u.)^3
     number of atoms/cell      =            4
     number of atomic types    =            3
     number of electrons       =        32.00 (up:  16.00, down:  16.00)
     number of Kohn-Sham states=           16
     kinetic-energy cutoff     =      55.0000  Ry
     charge density cutoff     =     550.0000  Ry
     scf convergence threshold =      1.0E-09
     mixing beta               =       0.2000
     number of iterations used =            8  plain     mixing
     energy convergence thresh.=      1.0E-05
     force convergence thresh. =      1.0E-04
     press convergence thresh. =      5.0E-01
     Exchange-correlation= SLA  PW   PSX  PSC
                           (   1   4  10   8   0   0   0)
     nstep                     =           50

     Hubbard projectors: ortho-atomic
     Hubbard parameters of DFT+U (Dudarev formulation) in eV:
     U(Ni1-3d) =  7.6000
     U(Ni2-3d) =  7.6000

     Internal variables: lda_plus_u =T, lda_plus_u_kind = 0

     Internal variables: orbital_resolved =F, hub_pot_fix =F, apply_U = F

     celldm(1)=   7.900000  celldm(2)=   0.000000  celldm(3)=   0.000000
     celldm(4)=   0.000000  celldm(5)=   0.000000  celldm(6)=   0.000000

     crystal axes: (cart. coord. in units of alat)
               a(1) = (  -0.500000   0.000000   0.500000 )  
               a(2) = (   0.000000   0.500000   0.500000 )  
               a(3) = (  -0.500000   0.500000   0.000000 )  

     reciprocal axes: (cart. coord. in units 2 pi/alat)
               b(1) = ( -1.000000 -1.000000  1.000000 )  
               b(2) = (  1.000000  1.000000  1.000000 )  
               b(3) = ( -1.000000  1.000000 -1.000000 )  


     PseudoPot. # 1 for Ni read from file:
     /Users/kirill/Documents/dft/volume/NiO_struct_opt_dft_U/../../pot/Ni.pbesol-n-kjpaw_psl.0.1.UPF
     MD5 check sum: 67dae6e8573ff35121f56d11d0d0ce7d
     Pseudo is Projector augmented-wave + core cor, Zval = 10.0
     Generated using "atomic" code by A. Dal Corso  v.5.0.2 svn rev. 9415
     Shape of augmentation charge: PSQ
     Using radial grid of 1195 points,  6 beta functions with: 
                l(1) =   0
                l(2) =   0
                l(3) =   1
                l(4) =   1
                l(5) =   2
                l(6) =   2
     Q(r) pseudized with 0 coefficients 


     PseudoPot. # 2 for Ni read from file:
     /Users/kirill/Documents/dft/volume/NiO_struct_opt_dft_U/../../pot/Ni.pbesol-n-kjpaw_psl.0.1.UPF
     MD5 check sum: 67dae6e8573ff35121f56d11d0d0ce7d
     Pseudo is Projector augmented-wave + core cor, Zval = 10.0
     Generated using "atomic" code by A. Dal Corso  v.5.0.2 svn rev. 9415
     Shape of augmentation charge: PSQ
     Using radial grid of 1195 points,  6 beta functions with: 
                l(1) =   0
                l(2) =   0
                l(3) =   1
                l(4) =   1
                l(5) =   2
                l(6) =   2
     Q(r) pseudized with 0 coefficients 


     PseudoPot. # 3 for O  read from file:
     /Users/kirill/Documents/dft/volume/NiO_struct_opt_dft_U/../../pot/O.pbesol-n-kjpaw_psl.1.0.0.UPF
     MD5 check sum: cb766521a97cf798d01896eaf7ac9a0a
     Pseudo is Projector augmented-wave + core cor, Zval =  6.0
     Generated using &quot;atomic&quot; code by A. Dal Corso  v.6.3
     Shape of augmentation charge: PSQ
     Using radial grid of 1095 points,  4 beta functions with: 
                l(1) =   0
                l(2) =   0
                l(3) =   1
                l(4) =   1
     Q(r) pseudized with 0 coefficients 


     atomic species   valence    mass     pseudopotential
     Ni1              10.00    58.69340     Ni( 1.00)
     Ni2              10.00    58.69340     Ni( 1.00)
     O                 6.00    15.99900     O ( 1.00)

     Starting magnetic structure 
     atomic species   magnetization
     Ni1             0.200
     Ni2            -0.200
     O               0.000

     48 Sym. Ops., with inversion, found



   Cartesian axes

     site n.     atom                  positions (alat units)
         1        Ni1    tau(   1) = (   0.0000000   0.0000000   0.0000000  )
         2        Ni2    tau(   2) = (   0.5000000   0.5000000   0.5000000  )
         3        O      tau(   3) = (   0.2500000   0.2500000   0.2500000  )
         4        O      tau(   4) = (   0.7500000   0.7500000   0.7500000  )

     number of k points=    16
                       cart. coord. in units 2pi/alat
        k(    1) = (   0.0000000   0.0000000   0.0000000), wk =   0.0046296
        k(    2) = (  -0.1666667   0.1666667  -0.1666667), wk =   0.0370370
        k(    3) = (  -0.3333333   0.3333333  -0.3333333), wk =   0.0370370
        k(    4) = (   0.5000000  -0.5000000   0.5000000), wk =   0.0185185
        k(    5) = (   0.0000000   0.3333333   0.0000000), wk =   0.0277778
        k(    6) = (  -0.1666667   0.5000000  -0.1666667), wk =   0.1111111
        k(    7) = (   0.6666667  -0.3333333   0.6666667), wk =   0.1111111
        k(    8) = (   0.5000000  -0.1666667   0.5000000), wk =   0.1111111
        k(    9) = (   0.3333333   0.0000000   0.3333333), wk =   0.0555556
        k(   10) = (   0.0000000   0.6666667   0.0000000), wk =   0.0277778
        k(   11) = (   0.8333333  -0.1666667   0.8333333), wk =   0.1111111
        k(   12) = (   0.6666667  -0.0000000   0.6666667), wk =   0.0555556
        k(   13) = (   0.0000000  -1.0000000   0.0000000), wk =   0.0138889
        k(   14) = (   0.6666667  -0.3333333   1.0000000), wk =   0.1111111
        k(   15) = (   0.5000000  -0.1666667   0.8333333), wk =   0.1111111
        k(   16) = (  -0.3333333  -1.0000000   0.0000000), wk =   0.0555556

     Dense  grid:    26813 G-vectors     FFT dimensions: (  45,  45,  45)

     Smooth grid:     6855 G-vectors     FFT dimensions: (  27,  27,  27)

     Estimated max dynamical RAM per process >      36.32 MB

     Estimated total dynamical RAM >     181.61 MB
     Generating pointlists ...
     new r_m :   0.1786 (alat units)  1.4111 (a.u.) for type    1
     new r_m :   0.1786 (alat units)  1.4111 (a.u.) for type    2
     new r_m :   0.1786 (alat units)  1.4111 (a.u.) for type    3

     Initial potential from superposition of free atoms

     starting charge      31.9995, renormalised to      32.0000

     STARTING HUBBARD OCCUPATIONS:

     =================== HUBBARD OCCUPATIONS ===================
     ------------------------ ATOM    1 ------------------------
     Tr[ns(  1)] (up, down, total) =   5.00000  3.00000  8.00000
     Atomic magnetic moment for atom   1 =   2.00000
     SPIN  1
     eigenvalues:
       1.000  1.000  1.000  1.000  1.000
     eigenvectors (columns):
       1.000  0.000  0.000  0.000  0.000
       0.000  1.000  0.000  0.000  0.000
       0.000  0.000  1.000  0.000  0.000
       0.000  0.000  0.000  1.000  0.000
       0.000  0.000  0.000  0.000  1.000
     occupation matrix ns (before diag.):
       1.000  0.000  0.000  0.000  0.000
       0.000  1.000  0.000  0.000  0.000
       0.000  0.000  1.000  0.000  0.000
       0.000  0.000  0.000  1.000  0.000
       0.000  0.000  0.000  0.000  1.000
     SPIN  2
     eigenvalues:
       0.600  0.600  0.600  0.600  0.600
     eigenvectors (columns):
       1.000  0.000  0.000  0.000  0.000
       0.000  1.000  0.000  0.000  0.000
       0.000  0.000  1.000  0.000  0.000
       0.000  0.000  0.000  1.000  0.000
       0.000  0.000  0.000  0.000  1.000
     occupation matrix ns (before diag.):
       0.600  0.000  0.000  0.000  0.000
       0.000  0.600  0.000  0.000  0.000
       0.000  0.000  0.600  0.000  0.000
       0.000  0.000  0.000  0.600  0.000
       0.000  0.000  0.000  0.000  0.600
     ------------------------ ATOM    2 ------------------------
     Tr[ns(  2)] (up, down, total) =   3.00000  5.00000  8.00000
     Atomic magnetic moment for atom   2 =  -2.00000
     SPIN  1
     eigenvalues:
       0.600  0.600  0.600  0.600  0.600
     eigenvectors (columns):
       1.000  0.000  0.000  0.000  0.000
       0.000  1.000  0.000  0.000  0.000
       0.000  0.000  1.000  0.000  0.000
       0.000  0.000  0.000  1.000  0.000
       0.000  0.000  0.000  0.000  1.000
     occupation matrix ns (before diag.):
       0.600  0.000  0.000  0.000  0.000
       0.000  0.600  0.000  0.000  0.000
       0.000  0.000  0.600  0.000  0.000
       0.000  0.000  0.000  0.600  0.000
       0.000  0.000  0.000  0.000  0.600
     SPIN  2
     eigenvalues:
       1.000  1.000  1.000  1.000  1.000
     eigenvectors (columns):
       1.000  0.000  0.000  0.000  0.000
       0.000  1.000  0.000  0.000  0.000
       0.000  0.000  1.000  0.000  0.000
       0.000  0.000  0.000  1.000  0.000
       0.000  0.000  0.000  0.000  1.000
     occupation matrix ns (before diag.):
       1.000  0.000  0.000  0.000  0.000
       0.000  1.000  0.000  0.000  0.000
       0.000  0.000  1.000  0.000  0.000
       0.000  0.000  0.000  1.000  0.000
       0.000  0.000  0.000  0.000  1.000

     Number of occupied Hubbard levels =   16.0000

     Atomic wfc used for Hubbard projectors are orthogonalized

     Starting wfcs are   26 randomized atomic wfcs
     Checking if some PAW data can be deallocated... 

     total cpu time spent up to now is        0.8 secs

     Self-consistent Calculation

     iteration #  1     ecut=    55.00 Ry     beta= 0.20
     Davidson diagonalization with overlap
     ethr =  1.00E-02,  avg # of iterations =  2.8

     =================== HUBBARD OCCUPATIONS ===================
     ------------------------ ATOM    1 ------------------------
     Tr[ns(  1)] (up, down, total) =   4.85943  3.75582  8.61525
     Atomic magnetic moment for atom   1 =   1.10361
     SPIN  1
     eigenvalues:
       0.963  0.963  0.963  0.985  0.985
     eigenvectors (columns):
      -0.000 -0.000  0.000 -0.659  0.752
      -0.294 -0.950  0.104 -0.000 -0.000
      -0.614  0.104 -0.783 -0.000 -0.000
       0.000  0.000 -0.000 -0.752 -0.659
       0.733 -0.294 -0.614  0.000  0.000
     occupation matrix ns (before diag.):
       0.985 -0.000 -0.000 -0.000  0.000
      -0.000  0.963 -0.000  0.000  0.000
      -0.000 -0.000  0.963  0.000  0.000
      -0.000  0.000  0.000  0.985 -0.000
       0.000  0.000  0.000 -0.000  0.963
     SPIN  2
     eigenvalues:
       0.622  0.622  0.622  0.946  0.946
     eigenvectors (columns):
      -0.000 -0.000  0.000 -0.768  0.640
      -0.265 -0.964  0.017 -0.000 -0.000
      -0.605  0.153 -0.781 -0.000 -0.000
       0.000  0.000 -0.000 -0.640 -0.768
       0.750 -0.218 -0.624  0.000  0.000
     occupation matrix ns (before diag.):
       0.946 -0.000 -0.000 -0.000  0.000
      -0.000  0.622 -0.000  0.000  0.000
      -0.000 -0.000  0.622  0.000  0.000
      -0.000  0.000  0.000  0.946 -0.000
       0.000  0.000  0.000 -0.000  0.622
     ------------------------ ATOM    2 ------------------------
     Tr[ns(  2)] (up, down, total) =   3.75595  4.85904  8.61499
     Atomic magnetic moment for atom   2 =  -1.10309
     SPIN  1
     eigenvalues:
       0.621  0.621  0.621  0.946  0.946
     eigenvectors (columns):
      -0.000  0.000 -0.000 -0.366  0.931
      -0.277 -0.596 -0.753 -0.000 -0.000
      -0.642 -0.469  0.607 -0.000 -0.000
       0.000 -0.000  0.000 -0.931 -0.366
       0.715 -0.651  0.253  0.000  0.000
     occupation matrix ns (before diag.):
       0.946 -0.000 -0.000 -0.000  0.000
      -0.000  0.621 -0.000  0.000  0.000
      -0.000 -0.000  0.621  0.000  0.000
      -0.000  0.000  0.000  0.946 -0.000
       0.000  0.000  0.000 -0.000  0.621
     SPIN  2
     eigenvalues:
       0.963  0.963  0.963  0.985  0.985
     eigenvectors (columns):
      -0.000  0.000 -0.000  0.152 -0.988
      -0.266 -0.684 -0.679  0.000  0.000
      -0.595 -0.437  0.674  0.000  0.000
       0.000  0.000  0.000  0.988  0.152
       0.758 -0.584  0.291 -0.000 -0.000
     occupation matrix ns (before diag.):
       0.985 -0.000 -0.000 -0.000  0.000
      -0.000  0.963 -0.000  0.000  0.000
      -0.000 -0.000  0.963  0.000  0.000
      -0.000  0.000  0.000  0.985 -0.000
       0.000  0.000  0.000 -0.000  0.963

     Number of occupied Hubbard levels =   17.2302

     total cpu time spent up to now is        1.2 secs

     total energy              =    -446.45355203 Ry
     estimated scf accuracy    <       0.39653322 Ry

     total magnetization       =     0.00 Bohr mag/cell
     absolute magnetization    =     2.36 Bohr mag/cell

     iteration #  2     ecut=    55.00 Ry     beta= 0.20
     Davidson diagonalization with overlap
     ethr =  1.24E-03,  avg # of iterations =  4.2

     total cpu time spent up to now is        1.7 secs

     total energy              =    -446.53833907 Ry
     estimated scf accuracy    <       0.13195097 Ry

     total magnetization       =    -0.00 Bohr mag/cell
     absolute magnetization    =     2.34 Bohr mag/cell

     iteration #  3     ecut=    55.00 Ry     beta= 0.20
     Davidson diagonalization with overlap
     ethr =  4.12E-04,  avg # of iterations =  4.4

     total cpu time spent up to now is        2.2 secs

     total energy              =    -446.59651054 Ry
     estimated scf accuracy    <       0.00908556 Ry

     total magnetization       =     0.00 Bohr mag/cell
     absolute magnetization    =     2.26 Bohr mag/cell

     iteration #  4     ecut=    55.00 Ry     beta= 0.20
     Davidson diagonalization with overlap
     ethr =  2.84E-05,  avg # of iterations = 12.6

     total cpu time spent up to now is        3.0 secs

     total energy              =    -446.64166149 Ry
     estimated scf accuracy    <       0.02355646 Ry

     total magnetization       =    -0.00 Bohr mag/cell
     absolute magnetization    =     2.04 Bohr mag/cell

     iteration #  5     ecut=    55.00 Ry     beta= 0.20
     Davidson diagonalization with overlap
     ethr =  2.84E-05,  avg # of iterations =  7.1

     total cpu time spent up to now is        3.6 secs

     total energy              =    -446.63986498 Ry
     estimated scf accuracy    <       0.09011285 Ry

     total magnetization       =     0.00 Bohr mag/cell
     absolute magnetization    =     1.97 Bohr mag/cell

     iteration #  6     ecut=    55.00 Ry     beta= 0.20
     Davidson diagonalization with overlap
     ethr =  2.84E-05,  avg # of iterations =  1.2

     total cpu time spent up to now is        4.0 secs

     total energy              =    -446.60804986 Ry
     estimated scf accuracy    <       0.07532238 Ry

     total magnetization       =    -0.00 Bohr mag/cell
     absolute magnetization    =     1.96 Bohr mag/cell

     iteration #  7     ecut=    55.00 Ry     beta= 0.20
     Davidson diagonalization with overlap
     ethr =  2.84E-05,  avg # of iterations =  8.4

     total cpu time spent up to now is        4.6 secs

     total energy              =    -446.62474270 Ry
     estimated scf accuracy    <       0.00333063 Ry

     total magnetization       =    -0.00 Bohr mag/cell
     absolute magnetization    =     1.99 Bohr mag/cell

     iteration #  8     ecut=    55.00 Ry     beta= 0.20
     Davidson diagonalization with overlap
     ethr =  1.04E-05,  avg # of iterations =  8.1

     total cpu time spent up to now is        5.3 secs

     total energy              =    -446.62648376 Ry
     estimated scf accuracy    <       0.02638076 Ry

     total magnetization       =    -0.00 Bohr mag/cell
     absolute magnetization    =     2.04 Bohr mag/cell

     iteration #  9     ecut=    55.00 Ry     beta= 0.20
     Davidson diagonalization with overlap
     ethr =  1.04E-05,  avg # of iterations =  1.7

     total cpu time spent up to now is        5.7 secs

     total energy              =    -446.62268585 Ry
     estimated scf accuracy    <       0.02027487 Ry

     total magnetization       =    -0.00 Bohr mag/cell
     absolute magnetization    =     2.04 Bohr mag/cell

     iteration # 10     ecut=    55.00 Ry     beta= 0.20
     Davidson diagonalization with overlap
     ethr =  1.04E-05,  avg # of iterations =  5.1

     total cpu time spent up to now is        6.2 secs

     total energy              =    -446.62351391 Ry
     estimated scf accuracy    <       0.00765094 Ry

     total magnetization       =     0.00 Bohr mag/cell
     absolute magnetization    =     1.99 Bohr mag/cell

     iteration # 11     ecut=    55.00 Ry     beta= 0.20
     Davidson diagonalization with overlap
     ethr =  1.04E-05,  avg # of iterations =  1.4

     total cpu time spent up to now is        6.6 secs

     total energy              =    -446.62065193 Ry
     estimated scf accuracy    <       0.00660355 Ry

     total magnetization       =     0.00 Bohr mag/cell
     absolute magnetization    =     1.99 Bohr mag/cell

     iteration # 12     ecut=    55.00 Ry     beta= 0.20
     Davidson diagonalization with overlap
     c_bands:  1 eigenvalues not converged
     ethr =  1.04E-05,  avg # of iterations =  7.1

     total cpu time spent up to now is        7.2 secs

     total energy              =    -446.62448654 Ry
     estimated scf accuracy    <       0.00063205 Ry

     total magnetization       =     0.00 Bohr mag/cell
     absolute magnetization    =     1.93 Bohr mag/cell

     iteration # 13     ecut=    55.00 Ry     beta= 0.20
     Davidson diagonalization with overlap
     c_bands:  1 eigenvalues not converged
     ethr =  1.98E-06,  avg # of iterations =  7.8

     total cpu time spent up to now is        7.9 secs

     total energy              =    -446.62477715 Ry
     estimated scf accuracy    <       0.00234120 Ry

     total magnetization       =     0.00 Bohr mag/cell
     absolute magnetization    =     1.94 Bohr mag/cell

     iteration # 14     ecut=    55.00 Ry     beta= 0.20
     Davidson diagonalization with overlap
     ethr =  1.98E-06,  avg # of iterations =  1.8

     total cpu time spent up to now is        8.3 secs

     total energy              =    -446.62425801 Ry
     estimated scf accuracy    <       0.00121689 Ry

     total magnetization       =     0.00 Bohr mag/cell
     absolute magnetization    =     1.94 Bohr mag/cell

     iteration # 15     ecut=    55.00 Ry     beta= 0.20
     Davidson diagonalization with overlap
     ethr =  1.98E-06,  avg # of iterations =  7.0

     total cpu time spent up to now is        8.9 secs

     total energy              =    -446.62477556 Ry
     estimated scf accuracy    <       0.00045443 Ry

     total magnetization       =     0.00 Bohr mag/cell
     absolute magnetization    =     1.92 Bohr mag/cell

     iteration # 16     ecut=    55.00 Ry     beta= 0.20
     Davidson diagonalization with overlap
     ethr =  1.42E-06,  avg # of iterations =  5.6

     total cpu time spent up to now is        9.4 secs

     total energy              =    -446.62488600 Ry
     estimated scf accuracy    <       0.00093400 Ry

     total magnetization       =     0.00 Bohr mag/cell
     absolute magnetization    =     1.90 Bohr mag/cell

     iteration # 17     ecut=    55.00 Ry     beta= 0.20
     Davidson diagonalization with overlap
     ethr =  1.42E-06,  avg # of iterations =  2.9

     total cpu time spent up to now is        9.9 secs

     total energy              =    -446.62516276 Ry
     estimated scf accuracy    <       0.00059363 Ry

     total magnetization       =    -0.00 Bohr mag/cell
     absolute magnetization    =     1.89 Bohr mag/cell

     iteration # 18     ecut=    55.00 Ry     beta= 0.20
     Davidson diagonalization with overlap
     ethr =  1.42E-06,  avg # of iterations =  3.7

     total cpu time spent up to now is       10.3 secs

     total energy              =    -446.62519595 Ry
     estimated scf accuracy    <       0.00122872 Ry

     total magnetization       =     0.00 Bohr mag/cell
     absolute magnetization    =     1.87 Bohr mag/cell

     iteration # 19     ecut=    55.00 Ry     beta= 0.20
     Davidson diagonalization with overlap
     ethr =  1.42E-06,  avg # of iterations =  3.6

     total cpu time spent up to now is       10.8 secs

     total energy              =    -446.62492962 Ry
     estimated scf accuracy    <       0.00143683 Ry

     total magnetization       =     0.00 Bohr mag/cell
     absolute magnetization    =     1.86 Bohr mag/cell

     iteration # 20     ecut=    55.00 Ry     beta= 0.20
     Davidson diagonalization with overlap
     ethr =  1.42E-06,  avg # of iterations =  1.9

     total cpu time spent up to now is       11.2 secs

     total energy              =    -446.62491038 Ry
     estimated scf accuracy    <       0.00080344 Ry

     total magnetization       =    -0.00 Bohr mag/cell
     absolute magnetization    =     1.86 Bohr mag/cell

     iteration # 21     ecut=    55.00 Ry     beta= 0.20
     Davidson diagonalization with overlap
     ethr =  1.42E-06,  avg # of iterations =  1.9

     total cpu time spent up to now is       11.7 secs

     total energy              =    -446.62490082 Ry
     estimated scf accuracy    <       0.00045426 Ry

     total magnetization       =    -0.00 Bohr mag/cell
     absolute magnetization    =     1.86 Bohr mag/cell

     iteration # 22     ecut=    55.00 Ry     beta= 0.20
     Davidson diagonalization with overlap
     ethr =  1.42E-06,  avg # of iterations =  1.8

     total cpu time spent up to now is       12.1 secs

     total energy              =    -446.62491549 Ry
     estimated scf accuracy    <       0.00031620 Ry

     total magnetization       =    -0.00 Bohr mag/cell
     absolute magnetization    =     1.86 Bohr mag/cell

     iteration # 23     ecut=    55.00 Ry     beta= 0.20
     Davidson diagonalization with overlap
     ethr =  9.88E-07,  avg # of iterations =  1.4

     total cpu time spent up to now is       12.5 secs

     total energy              =    -446.62477716 Ry
     estimated scf accuracy    <       0.00029053 Ry

     total magnetization       =    -0.00 Bohr mag/cell
     absolute magnetization    =     1.86 Bohr mag/cell

     iteration # 24     ecut=    55.00 Ry     beta= 0.20
     Davidson diagonalization with overlap
     ethr =  9.08E-07,  avg # of iterations =  8.3

     total cpu time spent up to now is       13.2 secs

     total energy              =    -446.62501528 Ry
     estimated scf accuracy    <       0.00076745 Ry

     total magnetization       =    -0.00 Bohr mag/cell
     absolute magnetization    =     1.87 Bohr mag/cell

     iteration # 25     ecut=    55.00 Ry     beta= 0.20
     Davidson diagonalization with overlap
     ethr =  9.08E-07,  avg # of iterations =  1.3

     total cpu time spent up to now is       13.6 secs

     total energy              =    -446.62486112 Ry
     estimated scf accuracy    <       0.00046633 Ry

     total magnetization       =    -0.00 Bohr mag/cell
     absolute magnetization    =     1.87 Bohr mag/cell

     iteration # 26     ecut=    55.00 Ry     beta= 0.20
     Davidson diagonalization with overlap
     ethr =  9.08E-07,  avg # of iterations =  6.2

     total cpu time spent up to now is       14.2 secs

     total energy              =    -446.62495191 Ry
     estimated scf accuracy    <       0.00010147 Ry

     total magnetization       =     0.00 Bohr mag/cell
     absolute magnetization    =     1.85 Bohr mag/cell

     iteration # 27     ecut=    55.00 Ry     beta= 0.20
     Davidson diagonalization with overlap
     ethr =  3.17E-07,  avg # of iterations =  8.4

     total cpu time spent up to now is       14.8 secs

     total energy              =    -446.62500183 Ry
     estimated scf accuracy    <       0.00012745 Ry

     total magnetization       =     0.00 Bohr mag/cell
     absolute magnetization    =     1.83 Bohr mag/cell

     iteration # 28     ecut=    55.00 Ry     beta= 0.20
     Davidson diagonalization with overlap
     ethr =  3.17E-07,  avg # of iterations =  2.0

     total cpu time spent up to now is       15.3 secs

     total energy              =    -446.62498986 Ry
     estimated scf accuracy    <       0.00004323 Ry

     total magnetization       =     0.00 Bohr mag/cell
     absolute magnetization    =     1.83 Bohr mag/cell

     iteration # 29     ecut=    55.00 Ry     beta= 0.20
     Davidson diagonalization with overlap
     ethr =  1.35E-07,  avg # of iterations =  7.0

     total cpu time spent up to now is       15.9 secs

     total energy              =    -446.62502302 Ry
     estimated scf accuracy    <       0.00002215 Ry

     total magnetization       =     0.00 Bohr mag/cell
     absolute magnetization    =     1.83 Bohr mag/cell

     iteration # 30     ecut=    55.00 Ry     beta= 0.20
     Davidson diagonalization with overlap
     ethr =  6.92E-08,  avg # of iterations =  2.8

     total cpu time spent up to now is       16.3 secs

     total energy              =    -446.62501673 Ry
     estimated scf accuracy    <       0.00002406 Ry

     total magnetization       =    -0.00 Bohr mag/cell
     absolute magnetization    =     1.83 Bohr mag/cell

     iteration # 31     ecut=    55.00 Ry     beta= 0.20
     Davidson diagonalization with overlap
     ethr =  6.92E-08,  avg # of iterations =  2.0

     total cpu time spent up to now is       16.8 secs

     total energy              =    -446.62501652 Ry
     estimated scf accuracy    <       0.00000478 Ry

     total magnetization       =    -0.00 Bohr mag/cell
     absolute magnetization    =     1.83 Bohr mag/cell

     iteration # 32     ecut=    55.00 Ry     beta= 0.20
     Davidson diagonalization with overlap
     c_bands:  1 eigenvalues not converged
     ethr =  1.49E-08,  avg # of iterations = 10.8

     total cpu time spent up to now is       17.5 secs

     total energy              =    -446.62502400 Ry
     estimated scf accuracy    <       0.00001042 Ry

     total magnetization       =    -0.00 Bohr mag/cell
     absolute magnetization    =     1.82 Bohr mag/cell

     iteration # 33     ecut=    55.00 Ry     beta= 0.20
     Davidson diagonalization with overlap
     ethr =  1.49E-08,  avg # of iterations =  1.8

     total cpu time spent up to now is       17.9 secs

     total energy              =    -446.62502231 Ry
     estimated scf accuracy    <       0.00000611 Ry

     total magnetization       =     0.00 Bohr mag/cell
     absolute magnetization    =     1.82 Bohr mag/cell

     iteration # 34     ecut=    55.00 Ry     beta= 0.20
     Davidson diagonalization with overlap
     ethr =  1.49E-08,  avg # of iterations =  3.2

     total cpu time spent up to now is       18.4 secs

     total energy              =    -446.62502318 Ry
     estimated scf accuracy    <       0.00000124 Ry

     total magnetization       =     0.00 Bohr mag/cell
     absolute magnetization    =     1.82 Bohr mag/cell

     iteration # 35     ecut=    55.00 Ry     beta= 0.20
     Davidson diagonalization with overlap
     ethr =  3.88E-09,  avg # of iterations =  6.1

     total cpu time spent up to now is       18.9 secs

     total energy              =    -446.62502339 Ry
     estimated scf accuracy    <       0.00000039 Ry

     total magnetization       =     0.00 Bohr mag/cell
     absolute magnetization    =     1.82 Bohr mag/cell

     iteration # 36     ecut=    55.00 Ry     beta= 0.20
     Davidson diagonalization with overlap
     c_bands:  1 eigenvalues not converged
     c_bands:  1 eigenvalues not converged
     c_bands:  1 eigenvalues not converged
     ethr =  1.23E-09,  avg # of iterations = 13.6

     total cpu time spent up to now is       19.7 secs

     total energy              =    -446.62502426 Ry
     estimated scf accuracy    <       0.00000024 Ry

     total magnetization       =     0.00 Bohr mag/cell
     absolute magnetization    =     1.82 Bohr mag/cell

     iteration # 37     ecut=    55.00 Ry     beta= 0.20
     Davidson diagonalization with overlap
     ethr =  7.61E-10,  avg # of iterations =  4.1

     total cpu time spent up to now is       20.2 secs

     total energy              =    -446.62502431 Ry
     estimated scf accuracy    <       0.00000012 Ry

     total magnetization       =     0.00 Bohr mag/cell
     absolute magnetization    =     1.82 Bohr mag/cell

     iteration # 38     ecut=    55.00 Ry     beta= 0.20
     Davidson diagonalization with overlap
     ethr =  3.78E-10,  avg # of iterations =  7.1

     total cpu time spent up to now is       20.7 secs

     total energy              =    -446.62502421 Ry
     estimated scf accuracy    <          5.3E-09 Ry

     total magnetization       =    -0.00 Bohr mag/cell
     absolute magnetization    =     1.82 Bohr mag/cell

     iteration # 39     ecut=    55.00 Ry     beta= 0.20
     Davidson diagonalization with overlap
     c_bands:  3 eigenvalues not converged
     c_bands:  1 eigenvalues not converged
     c_bands:  2 eigenvalues not converged
     c_bands:  1 eigenvalues not converged
     c_bands:  1 eigenvalues not converged
     c_bands:  2 eigenvalues not converged
     c_bands:  1 eigenvalues not converged
     c_bands:  2 eigenvalues not converged
     c_bands:  1 eigenvalues not converged
     c_bands:  3 eigenvalues not converged
     c_bands:  1 eigenvalues not converged
     ethr =  1.65E-11,  avg # of iterations = 18.2

     total cpu time spent up to now is       21.7 secs

     total energy              =    -446.62502427 Ry
     estimated scf accuracy    <       0.00000006 Ry

     total magnetization       =     0.00 Bohr mag/cell
     absolute magnetization    =     1.82 Bohr mag/cell

     iteration # 40     ecut=    55.00 Ry     beta= 0.20
     Davidson diagonalization with overlap
     c_bands:  2 eigenvalues not converged
     c_bands:  1 eigenvalues not converged
     ethr =  1.65E-11,  avg # of iterations = 14.4

     total cpu time spent up to now is       22.5 secs

     total energy              =    -446.62502432 Ry
     estimated scf accuracy    <       0.00000018 Ry

     total magnetization       =    -0.00 Bohr mag/cell
     absolute magnetization    =     1.82 Bohr mag/cell

     iteration # 41     ecut=    55.00 Ry     beta= 0.20
     Davidson diagonalization with overlap
     ethr =  1.65E-11,  avg # of iterations =  9.5

     total cpu time spent up to now is       23.1 secs

     total energy              =    -446.62502425 Ry
     estimated scf accuracy    <       0.00000016 Ry

     total magnetization       =     0.00 Bohr mag/cell
     absolute magnetization    =     1.82 Bohr mag/cell

     iteration # 42     ecut=    55.00 Ry     beta= 0.20
     Davidson diagonalization with overlap
     c_bands:  2 eigenvalues not converged
     c_bands:  4 eigenvalues not converged
     c_bands:  3 eigenvalues not converged
     c_bands:  5 eigenvalues not converged
     c_bands:  1 eigenvalues not converged
     c_bands:  1 eigenvalues not converged
     c_bands:  1 eigenvalues not converged
     c_bands:  1 eigenvalues not converged
     c_bands:  1 eigenvalues not converged
     c_bands:  2 eigenvalues not converged
     c_bands:  3 eigenvalues not converged
     c_bands:  1 eigenvalues not converged
     c_bands:  1 eigenvalues not converged
     ethr =  1.65E-11,  avg # of iterations = 18.2

     total cpu time spent up to now is       24.1 secs

     total energy              =    -446.62502437 Ry
     estimated scf accuracy    <          9.3E-09 Ry

     total magnetization       =     0.00 Bohr mag/cell
     absolute magnetization    =     1.82 Bohr mag/cell

     iteration # 43     ecut=    55.00 Ry     beta= 0.20
     Davidson diagonalization with overlap
     c_bands:  1 eigenvalues not converged
     ethr =  1.65E-11,  avg # of iterations = 10.2

     total cpu time spent up to now is       24.8 secs

     total energy              =    -446.62502437 Ry
     estimated scf accuracy    <       0.00000003 Ry

     total magnetization       =    -0.00 Bohr mag/cell
     absolute magnetization    =     1.82 Bohr mag/cell

     iteration # 44     ecut=    55.00 Ry     beta= 0.20
     Davidson diagonalization with overlap
     ethr =  1.65E-11,  avg # of iterations =  9.3

     total cpu time spent up to now is       25.5 secs

     total energy              =    -446.62502438 Ry
     estimated scf accuracy    <          1.9E-09 Ry

     total magnetization       =     0.00 Bohr mag/cell
     absolute magnetization    =     1.82 Bohr mag/cell

     iteration # 45     ecut=    55.00 Ry     beta= 0.20
     Davidson diagonalization with overlap
     ethr =  5.85E-12,  avg # of iterations =  7.7

     total cpu time spent up to now is       26.0 secs

     total energy              =    -446.62502438 Ry
     estimated scf accuracy    <          1.6E-09 Ry

     total magnetization       =     0.00 Bohr mag/cell
     absolute magnetization    =     1.82 Bohr mag/cell

     iteration # 46     ecut=    55.00 Ry     beta= 0.20
     Davidson diagonalization with overlap
     ethr =  4.86E-12,  avg # of iterations =  5.6

     Magnetic moment per site  (integrated on atomic sphere of radius R)
     atom   1 (R=0.179)  charge=  7.5716  magn=  0.8291
     atom   2 (R=0.179)  charge=  7.5717  magn= -0.8291
     atom   3 (R=0.179)  charge=  5.4499  magn= -0.0000
     atom   4 (R=0.179)  charge=  5.4499  magn= -0.0000

     total cpu time spent up to now is       26.6 secs

     End of self-consistent calculation

     =================== HUBBARD OCCUPATIONS ===================
     ------------------------ ATOM    1 ------------------------
     Tr[ns(  1)] (up, down, total) =   4.74570  3.90337  8.64907
     Atomic magnetic moment for atom   1 =   0.84233
     SPIN  1
     eigenvalues:
       0.931  0.931  0.931  0.976  0.976
     eigenvectors (columns):
      -0.000 -0.000  0.000 -0.442  0.897
      -0.277 -0.960 -0.031 -0.000 -0.000
      -0.601  0.198 -0.774 -0.000 -0.000
       0.000  0.000 -0.000 -0.897 -0.442
       0.749 -0.196 -0.633  0.000  0.000
     occupation matrix ns (before diag.):
       0.976 -0.000 -0.000 -0.000  0.000
      -0.000  0.931 -0.000  0.000  0.000
      -0.000 -0.000  0.931  0.000  0.000
      -0.000  0.000  0.000  0.976 -0.000
       0.000  0.000  0.000 -0.000  0.931
     SPIN  2
     eigenvalues:
       0.659  0.659  0.659  0.964  0.964
     eigenvectors (columns):
      -0.000  0.000 -0.000 -0.399  0.917
      -0.247 -0.291 -0.924 -0.000 -0.000
      -0.606 -0.698  0.381 -0.000 -0.000
       0.000 -0.000  0.000 -0.917 -0.399
       0.756 -0.655  0.004  0.000  0.000
     occupation matrix ns (before diag.):
       0.964 -0.000 -0.000 -0.000  0.000
      -0.000  0.659 -0.000  0.000  0.000
      -0.000 -0.000  0.659  0.000  0.000
      -0.000  0.000  0.000  0.964 -0.000
       0.000  0.000  0.000 -0.000  0.659
     ------------------------ ATOM    2 ------------------------
     Tr[ns(  2)] (up, down, total) =   3.90337  4.74570  8.64907
     Atomic magnetic moment for atom   2 =  -0.84233
     SPIN  1
     eigenvalues:
       0.659  0.659  0.659  0.964  0.964
     eigenvectors (columns):
      -0.000  0.000  0.000 -0.600  0.800
      -0.291  0.956  0.043 -0.000 -0.000
      -0.606 -0.150 -0.781 -0.000 -0.000
       0.000 -0.000 -0.000 -0.800 -0.600
       0.740  0.253 -0.623  0.000  0.000
     occupation matrix ns (before diag.):
       0.964 -0.000 -0.000 -0.000  0.000
      -0.000  0.659 -0.000  0.000  0.000
      -0.000 -0.000  0.659  0.000  0.000
      -0.000  0.000  0.000  0.964 -0.000
       0.000  0.000  0.000 -0.000  0.659
     SPIN  2
     eigenvalues:
       0.931  0.931  0.931  0.976  0.976
     eigenvectors (columns):
      -0.000 -0.000  0.000  0.175 -0.985
      -0.283 -0.931  0.231  0.000  0.000
      -0.613 -0.010 -0.790  0.000  0.000
       0.000  0.000 -0.000  0.985  0.175
       0.738 -0.365 -0.567 -0.000 -0.000
     occupation matrix ns (before diag.):
       0.976 -0.000 -0.000 -0.000  0.000
      -0.000  0.931 -0.000  0.000  0.000
      -0.000 -0.000  0.931  0.000  0.000
      -0.000  0.000  0.000  0.976 -0.000
       0.000  0.000  0.000 -0.000  0.931

     Number of occupied Hubbard levels =   17.2981

 ------ SPIN UP ------------


          k = 0.0000 0.0000 0.0000 (   869 PWs)   bands (ev):

    -0.3482   8.6699  12.9290  12.9290  12.9290  17.8787  17.8787  23.0478
    23.0478  23.0478  25.3236  25.3236  25.3236  26.1048  26.1048  30.6986

          k =-0.1667 0.1667-0.1667 (   869 PWs)   bands (ev):

     0.1798   7.0814  13.4044  13.4044  15.2189  17.7519  17.7519  21.1319
    22.6940  22.6940  25.2159  25.2159  25.7794  25.7794  26.2004  28.7471

          k =-0.3333 0.3333-0.3333 (   854 PWs)   bands (ev):

     1.5576   5.0373  14.6715  14.6715  17.4009  17.4009  18.4008  19.2061
    21.8974  21.8974  23.5429  23.5429  24.5372  26.6827  26.6827  27.8012

          k = 0.5000-0.5000 0.5000 (   862 PWs)   bands (ev):

     3.1949   3.3481  15.9264  15.9264  16.6882  16.6882  18.7433  19.0675
    21.5525  21.5525  22.6697  22.6697  24.4384  27.1425  27.2011  27.2011

          k = 0.0000 0.3333 0.0000 (   869 PWs)   bands (ev):

     0.3557   6.7526  13.5385  13.5385  15.8742  16.8689  18.1658  21.6325
    21.6325  22.8946  24.0852  25.3861  26.0750  26.4908  26.4908  28.9386

          k =-0.1667 0.5000-0.1667 (   847 PWs)   bands (ev):

     1.4421   5.3003  14.3554  14.4798  15.6326  18.2381  18.7684  20.2524
    20.7351  22.3142  23.7676  24.9195  25.2507  25.3397  26.8311  28.3398

          k = 0.6667-0.3333 0.6667 (   842 PWs)   bands (ev):

     2.9455   3.8820  14.6605  15.2945  15.7452  17.4895  19.8980  20.3421
    20.5320  21.2536  23.5312  23.6294  24.6445  25.9813  26.5066  27.5351

          k = 0.5000-0.1667 0.5000 (   848 PWs)   bands (ev):

     2.4097   4.3759  14.2942  15.6910  16.0508  16.8017  20.1993  20.2484
    20.7294  21.6252  23.5363  23.5492  24.5899  25.5907  26.4940  27.7826

          k = 0.3333 0.0000 0.3333 (   853 PWs)   bands (ev):

     0.9863   5.8107  13.8319  14.1959  17.2601  17.2818  17.6922  20.4498
    21.2818  23.3580  23.9400  24.4668  24.8699  26.1695  26.4062  28.4099

          k = 0.0000 0.6667 0.0000 (   837 PWs)   bands (ev):

     2.1516   4.7658  13.5930  15.0410  15.0410  18.7783  19.9650  19.9650
    20.6558  20.8683  24.6824  25.0627  25.0627  25.4754  26.0163  29.0334

          k = 0.8333-0.1667 0.8333 (   847 PWs)   bands (ev):

     3.1917   4.1067  12.4950  15.3429  15.8949  18.6801  19.5129  19.6836
    20.2670  22.3222  24.0337  24.2382  25.4570  25.7587  25.8750  28.2509

          k = 0.6667-0.0000 0.6667 (   856 PWs)   bands (ev):

     3.4078   3.8722  13.0039  15.0696  16.4395  17.2786  20.2701  20.3957
    20.4420  21.6352  23.9205  24.0339  25.2252  25.9332  25.9708  27.6911

          k = 0.0000-1.0000 0.0000 (   846 PWs)   bands (ev):

     3.4721   4.0544  11.4870  16.0912  16.0912  19.1066  19.2279  19.2279
    19.5375  23.7255  23.7255  24.4796  24.8967  25.9870  26.0139  27.3555

          k = 0.6667-0.3333 1.0000 (   851 PWs)   bands (ev):

     2.5439   4.4491  14.1337  14.3908  15.7359  18.0284  20.0007  20.3122
    21.0556  21.1576  23.9611  24.4123  24.8678  25.1795  26.2013  28.3931

          k = 0.5000-0.1667 0.8333 (   842 PWs)   bands (ev):

     3.6091   3.6527  13.7645  13.8965  17.0293  17.3400  20.1051  20.3083
    20.4113  21.4386  23.9410  24.0674  25.6599  25.6999  26.0394  27.5953

          k =-0.3333-1.0000 0.0000 (   858 PWs)   bands (ev):

     3.6122   3.9076  12.3559  14.4773  16.8529  18.4368  19.6159  19.6530
    20.1044  22.0108  23.9923  24.4497  25.7304  25.8538  26.8552  27.5219

 ------ SPIN DOWN ----------


          k = 0.0000 0.0000 0.0000 (   869 PWs)   bands (ev):

    -0.3482   8.6699  12.9290  12.9290  12.9290  17.8787  17.8787  23.0478
    23.0478  23.0478  25.3236  25.3236  25.3236  26.1048  26.1048  30.6986

          k =-0.1667 0.1667-0.1667 (   869 PWs)   bands (ev):

     0.1798   7.0814  13.4044  13.4044  15.2189  17.7519  17.7519  21.1319
    22.6940  22.6940  25.2159  25.2159  25.7794  25.7794  26.2004  28.7471

          k =-0.3333 0.3333-0.3333 (   854 PWs)   bands (ev):

     1.5576   5.0373  14.6715  14.6715  17.4009  17.4009  18.4008  19.2061
    21.8974  21.8974  23.5429  23.5429  24.5372  26.6827  26.6827  27.8012

          k = 0.5000-0.5000 0.5000 (   862 PWs)   bands (ev):

     3.1949   3.3481  15.9264  15.9264  16.6882  16.6882  18.7433  19.0675
    21.5525  21.5525  22.6698  22.6698  24.4384  27.1425  27.2011  27.2011

          k = 0.0000 0.3333 0.0000 (   869 PWs)   bands (ev):

     0.3557   6.7526  13.5385  13.5385  15.8742  16.8689  18.1658  21.6325
    21.6325  22.8946  24.0852  25.3861  26.0750  26.4908  26.4908  28.9386

          k =-0.1667 0.5000-0.1667 (   847 PWs)   bands (ev):

     1.4421   5.3003  14.3554  14.4798  15.6326  18.2381  18.7684  20.2524
    20.7351  22.3142  23.7676  24.9195  25.2507  25.3397  26.8311  28.3398

          k = 0.6667-0.3333 0.6667 (   842 PWs)   bands (ev):

     2.9455   3.8820  14.6605  15.2945  15.7452  17.4895  19.8980  20.3421
    20.5320  21.2536  23.5312  23.6294  24.6445  25.9813  26.5066  27.5351

          k = 0.5000-0.1667 0.5000 (   848 PWs)   bands (ev):

     2.4097   4.3759  14.2942  15.6910  16.0508  16.8017  20.1993  20.2484
    20.7293  21.6252  23.5363  23.5492  24.5899  25.5907  26.4940  27.7827

          k = 0.3333 0.0000 0.3333 (   853 PWs)   bands (ev):

     0.9863   5.8107  13.8319  14.1959  17.2601  17.2818  17.6922  20.4498
    21.2818  23.3580  23.9400  24.4668  24.8698  26.1695  26.4062  28.4099

          k = 0.0000 0.6667 0.0000 (   837 PWs)   bands (ev):

     2.1516   4.7658  13.5930  15.0410  15.0410  18.7783  19.9650  19.9650
    20.6558  20.8683  24.6824  25.0627  25.0627  25.4754  26.0163  29.0334

          k = 0.8333-0.1667 0.8333 (   847 PWs)   bands (ev):

     3.1917   4.1067  12.4950  15.3429  15.8949  18.6801  19.5129  19.6836
    20.2670  22.3222  24.0337  24.2382  25.4570  25.7587  25.8750  28.2509

          k = 0.6667-0.0000 0.6667 (   856 PWs)   bands (ev):

     3.4078   3.8722  13.0039  15.0696  16.4395  17.2786  20.2701  20.3957
    20.4420  21.6352  23.9205  24.0339  25.2252  25.9332  25.9708  27.6911

          k = 0.0000-1.0000 0.0000 (   846 PWs)   bands (ev):

     3.4721   4.0544  11.4870  16.0912  16.0912  19.1066  19.2279  19.2279
    19.5375  23.7255  23.7255  24.4795  24.8967  25.9870  26.0139  27.3556

          k = 0.6667-0.3333 1.0000 (   851 PWs)   bands (ev):

     2.5439   4.4491  14.1337  14.3908  15.7359  18.0284  20.0007  20.3122
    21.0556  21.1576  23.9611  24.4123  24.8678  25.1795  26.2013  28.3932

          k = 0.5000-0.1667 0.8333 (   842 PWs)   bands (ev):

     3.6091   3.6527  13.7645  13.8965  17.0293  17.3400  20.1051  20.3083
    20.4113  21.4386  23.9409  24.0674  25.6599  25.6999  26.0394  27.5953

          k =-0.3333-1.0000 0.0000 (   858 PWs)   bands (ev):

     3.6122   3.9076  12.3559  14.4773  16.8529  18.4368  19.6159  19.6529
    20.1044  22.0108  23.9923  24.4497  25.7304  25.8538  26.8552  27.5219

     highest occupied level (ev):    30.6986

!    total energy              =    -446.62502438 Ry
     total all-electron energy =     -6376.148306 Ry
     estimated scf accuracy    <          4.7E-11 Ry

     The total energy is the sum of the following terms:
     one-electron contribution =      47.44346497 Ry
     hartree contribution      =      33.94786588 Ry
     xc contribution           =    -100.16548903 Ry
     ewald contribution        =    -244.10368284 Ry
     Hubbard energy            =       0.54917799 Ry
     one-center paw contrib.   =    -184.29636135 Ry

     total magnetization       =     0.00 Bohr mag/cell
     absolute magnetization    =     1.82 Bohr mag/cell

     convergence has been achieved in  46 iterations


     Computing stress (Cartesian axis) and pressure

     stres_hub    :      0.45s CPU      0.46s WALL (       1 calls)
     dprojdepsilo :      0.41s CPU      0.43s WALL (     288 calls)
     dprojdeps1   :      0.02s CPU      0.02s WALL (     288 calls)
     dprojdeps2   :      0.26s CPU      0.27s WALL (     288 calls)
     dprojdeps3   :      0.13s CPU      0.13s WALL (     288 calls)
          total   stress  (Ry/bohr**3)                   (kbar)     P=     5789.13
   0.03935371  -0.00000000  -0.00000000         5789.13       -0.00       -0.00
  -0.00000000   0.03935371   0.00000000           -0.00     5789.13        0.00
  -0.00000000   0.00000000   0.03935371           -0.00        0.00     5789.13


     BFGS Geometry Optimization
     Energy error            =      9.9E+00 Ry
     Gradient error          =      0.0E+00 Ry/Bohr
     Cell gradient error     =      5.8E+03 kbar

     number of scf cycles    =   1
     number of bfgs steps    =   0

     enthalpy           new  =    -446.6250243831 Ry

     new trust radius        =       0.5000000000 bohr
     new conv_thr            =       0.0000000010 Ry

     new unit-cell volume =    226.68393 a.u.^3 (    33.59109 Ang^3 )
     density =      7.38467 g/cm^3

CELL_PARAMETERS (alat=  7.90000000)
  -0.612589884   0.000000000   0.612589884
  -0.000000000   0.612589884   0.612589884
  -0.612589884   0.612589884   0.000000000

ATOMIC_POSITIONS (alat)
Ni1             -0.0000000000        0.0000000000        0.0000000000    0   0   0
Ni2              0.6125898840        0.6125898840        0.6125898840    0   0   0
O                0.3062949420        0.3062949420        0.3062949420    0   0   0
O                0.9188848260        0.9188848260        0.9188848260    0   0   0



     Writing config-only to output data dir /Users/kirill/Documents/dft/volume/NiO_struct_opt_dft_U/out/NiO.save/ :
     XML data file
     NEW-OLD atomic charge density approx. for the potential
     New effective cutoffs (rho, wfc):  365.78   36.62

     Check: negative core charge=   -0.000001
     Generating pointlists ...

     Atomic wfc used for Hubbard projectors are orthogonalized


     total cpu time spent up to now is       27.7 secs

     Self-consistent Calculation

     iteration #  1     ecut=    55.00 Ry     beta= 0.20
     Davidson diagonalization with overlap
     c_bands:  3 eigenvalues not converged
     c_bands:  4 eigenvalues not converged
     c_bands:  3 eigenvalues not converged
     c_bands:  2 eigenvalues not converged
     c_bands:  1 eigenvalues not converged
     c_bands:  1 eigenvalues not converged
     c_bands:  3 eigenvalues not converged
     c_bands:  3 eigenvalues not converged
     c_bands:  1 eigenvalues not converged
     c_bands:  1 eigenvalues not converged
     ethr =  1.00E-06,  avg # of iterations = 29.5

     =================== HUBBARD OCCUPATIONS ===================
     ------------------------ ATOM    1 ------------------------
     Tr[ns(  1)] (up, down, total) =   4.87441  3.92274  8.79715
     Atomic magnetic moment for atom   1 =   0.95167
     SPIN  1
     eigenvalues:
       0.969  0.969  0.969  0.984  0.984
     eigenvectors (columns):
      -0.000  0.000 -0.000  0.109 -0.994
      -0.275 -0.731 -0.624  0.000  0.000
      -0.612 -0.368  0.701  0.000  0.000
       0.000  0.000  0.000  0.994  0.109
       0.742 -0.574  0.346 -0.000 -0.000
     occupation matrix ns (before diag.):
       0.984 -0.000 -0.000 -0.000  0.000
      -0.000  0.969 -0.000  0.000  0.000
      -0.000 -0.000  0.969  0.000  0.000
      -0.000  0.000  0.000  0.984 -0.000
       0.000  0.000  0.000 -0.000  0.969
     SPIN  2
     eigenvalues:
       0.657  0.657  0.657  0.976  0.976
     eigenvectors (columns):
      -0.000 -0.000 -0.000 -0.363  0.932
      -0.259 -0.903 -0.344 -0.000 -0.000
      -0.605 -0.126  0.786 -0.000 -0.000
       0.000  0.000  0.000 -0.932 -0.363
       0.753 -0.411  0.514  0.000  0.000
     occupation matrix ns (before diag.):
       0.976 -0.000 -0.000 -0.000  0.000
      -0.000  0.657 -0.000  0.000  0.000
      -0.000 -0.000  0.657  0.000  0.000
      -0.000  0.000  0.000  0.976 -0.000
       0.000  0.000  0.000 -0.000  0.657
     ------------------------ ATOM    2 ------------------------
     Tr[ns(  2)] (up, down, total) =   3.92231  4.87417  8.79648
     Atomic magnetic moment for atom   2 =  -0.95186
     SPIN  1
     eigenvalues:
       0.657  0.657  0.657  0.976  0.976
     eigenvectors (columns):
      -0.000  0.000 -0.000  0.116 -0.993
      -0.260 -0.689 -0.676  0.000  0.000
      -0.585 -0.445  0.678  0.000  0.000
       0.000  0.000  0.000  0.993  0.116
       0.768 -0.572  0.288 -0.000 -0.000
     occupation matrix ns (before diag.):
       0.976 -0.000 -0.000 -0.000  0.000
      -0.000  0.657 -0.000  0.000  0.000
      -0.000 -0.000  0.657  0.000  0.000
      -0.000  0.000  0.000  0.976 -0.000
       0.000  0.000  0.000 -0.000  0.657
     SPIN  2
     eigenvalues:
       0.969  0.969  0.969  0.984  0.984
     eigenvectors (columns):
      -0.000 -0.000  0.000  0.854 -0.520
      -0.281 -0.817  0.504 -0.000  0.000
      -0.590 -0.268 -0.762  0.000  0.000
       0.000  0.000 -0.000  0.520  0.854
       0.757 -0.511 -0.407  0.000 -0.000
     occupation matrix ns (before diag.):
       0.984 -0.000 -0.000 -0.000  0.000
      -0.000  0.969 -0.000  0.000  0.000
      -0.000 -0.000  0.969  0.000  0.000
      -0.000  0.000  0.000  0.984 -0.000
       0.000  0.000  0.000 -0.000  0.969

     Number of occupied Hubbard levels =   17.5936

     total cpu time spent up to now is       29.6 secs

     total energy              =    -447.85544465 Ry
     estimated scf accuracy    <       0.10450451 Ry

     total magnetization       =    -0.00 Bohr mag/cell
     absolute magnetization    =     2.05 Bohr mag/cell

     iteration #  2     ecut=    55.00 Ry     beta= 0.20
     Davidson diagonalization with overlap
     ethr =  3.27E-04,  avg # of iterations =  2.4

     total cpu time spent up to now is       30.1 secs

     total energy              =    -447.79194161 Ry
     estimated scf accuracy    <       0.02625808 Ry

     total magnetization       =    -0.00 Bohr mag/cell
     absolute magnetization    =     2.19 Bohr mag/cell

     iteration #  3     ecut=    55.00 Ry     beta= 0.20
     Davidson diagonalization with overlap
     ethr =  8.21E-05,  avg # of iterations = 10.2

     total cpu time spent up to now is       30.8 secs

     total energy              =    -447.85186396 Ry
     estimated scf accuracy    <       0.14439010 Ry

     total magnetization       =    -0.00 Bohr mag/cell
     absolute magnetization    =     2.78 Bohr mag/cell

     iteration #  4     ecut=    55.00 Ry     beta= 0.20
     Davidson diagonalization with overlap
     ethr =  8.21E-05,  avg # of iterations =  7.7

     total cpu time spent up to now is       31.5 secs

     total energy              =    -447.91206340 Ry
     estimated scf accuracy    <       0.58689082 Ry

     total magnetization       =     0.00 Bohr mag/cell
     absolute magnetization    =     3.11 Bohr mag/cell

     iteration #  5     ecut=    55.00 Ry     beta= 0.20
     Davidson diagonalization with overlap
     ethr =  8.21E-05,  avg # of iterations =  6.5

     total cpu time spent up to now is       32.1 secs

     total energy              =    -447.81467745 Ry
     estimated scf accuracy    <       0.85179095 Ry

     total magnetization       =    -0.00 Bohr mag/cell
     absolute magnetization    =     3.40 Bohr mag/cell

     iteration #  6     ecut=    55.00 Ry     beta= 0.20
     Davidson diagonalization with overlap
     ethr =  8.21E-05,  avg # of iterations =  6.2

     total cpu time spent up to now is       32.7 secs

     total energy              =    -447.73417159 Ry
     estimated scf accuracy    <       0.42386509 Ry

     total magnetization       =     0.00 Bohr mag/cell
     absolute magnetization    =     3.23 Bohr mag/cell

     iteration #  7     ecut=    55.00 Ry     beta= 0.20
     Davidson diagonalization with overlap
     ethr =  8.21E-05,  avg # of iterations = 11.3

     total cpu time spent up to now is       33.5 secs

     total energy              =    -447.79745705 Ry
     estimated scf accuracy    <       0.00986923 Ry

     total magnetization       =    -0.00 Bohr mag/cell
     absolute magnetization    =     2.89 Bohr mag/cell

     iteration #  8     ecut=    55.00 Ry     beta= 0.20
     Davidson diagonalization with overlap
     ethr =  3.08E-05,  avg # of iterations =  3.4

     total cpu time spent up to now is       34.0 secs

     total energy              =    -447.80083379 Ry
     estimated scf accuracy    <       0.00276136 Ry

     total magnetization       =    -0.00 Bohr mag/cell
     absolute magnetization    =     2.92 Bohr mag/cell

     iteration #  9     ecut=    55.00 Ry     beta= 0.20
     Davidson diagonalization with overlap
     ethr =  8.63E-06,  avg # of iterations =  3.1

     total cpu time spent up to now is       34.5 secs

     total energy              =    -447.80124671 Ry
     estimated scf accuracy    <       0.00206739 Ry

     total magnetization       =     0.00 Bohr mag/cell
     absolute magnetization    =     2.93 Bohr mag/cell

     iteration # 10     ecut=    55.00 Ry     beta= 0.20
     Davidson diagonalization with overlap
     ethr =  6.46E-06,  avg # of iterations =  1.9

     total cpu time spent up to now is       35.0 secs

     total energy              =    -447.80061377 Ry
     estimated scf accuracy    <       0.00245949 Ry

     total magnetization       =     0.00 Bohr mag/cell
     absolute magnetization    =     2.93 Bohr mag/cell

     iteration # 11     ecut=    55.00 Ry     beta= 0.20
     Davidson diagonalization with overlap
     ethr =  6.46E-06,  avg # of iterations =  5.6

     total cpu time spent up to now is       35.5 secs

     total energy              =    -447.80106156 Ry
     estimated scf accuracy    <       0.00024856 Ry

     total magnetization       =     0.00 Bohr mag/cell
     absolute magnetization    =     2.97 Bohr mag/cell

     iteration # 12     ecut=    55.00 Ry     beta= 0.20
     Davidson diagonalization with overlap
     ethr =  7.77E-07,  avg # of iterations =  6.7

     total cpu time spent up to now is       36.0 secs

     total energy              =    -447.80118229 Ry
     estimated scf accuracy    <       0.00007808 Ry

     total magnetization       =    -0.00 Bohr mag/cell
     absolute magnetization    =     2.99 Bohr mag/cell

     iteration # 13     ecut=    55.00 Ry     beta= 0.20
     Davidson diagonalization with overlap
     ethr =  2.44E-07,  avg # of iterations =  7.7

     total cpu time spent up to now is       36.6 secs

     total energy              =    -447.80108743 Ry
     estimated scf accuracy    <       0.00034283 Ry

     total magnetization       =    -0.00 Bohr mag/cell
     absolute magnetization    =     2.97 Bohr mag/cell

     iteration # 14     ecut=    55.00 Ry     beta= 0.20
     Davidson diagonalization with overlap
     ethr =  2.44E-07,  avg # of iterations = 10.2

     total cpu time spent up to now is       37.3 secs

     total energy              =    -447.80136658 Ry
     estimated scf accuracy    <       0.00019632 Ry

     total magnetization       =     0.00 Bohr mag/cell
     absolute magnetization    =     2.99 Bohr mag/cell

     iteration # 15     ecut=    55.00 Ry     beta= 0.20
     Davidson diagonalization with overlap
     c_bands:  1 eigenvalues not converged
     ethr =  2.44E-07,  avg # of iterations = 13.9

     total cpu time spent up to now is       38.2 secs

     total energy              =    -447.80112940 Ry
     estimated scf accuracy    <       0.00407390 Ry

     total magnetization       =     0.00 Bohr mag/cell
     absolute magnetization    =     3.03 Bohr mag/cell

     iteration # 16     ecut=    55.00 Ry     beta= 0.20
     Davidson diagonalization with overlap
     ethr =  2.44E-07,  avg # of iterations =  9.2

     total cpu time spent up to now is       39.0 secs

     total energy              =    -447.80169999 Ry
     estimated scf accuracy    <       0.00127985 Ry

     total magnetization       =     0.00 Bohr mag/cell
     absolute magnetization    =     3.01 Bohr mag/cell

     iteration # 17     ecut=    55.00 Ry     beta= 0.20
     Davidson diagonalization with overlap
     ethr =  2.44E-07,  avg # of iterations = 11.2

     total cpu time spent up to now is       39.8 secs

     total energy              =    -447.80098362 Ry
     estimated scf accuracy    <       0.00527772 Ry

     total magnetization       =     0.00 Bohr mag/cell
     absolute magnetization    =     3.03 Bohr mag/cell

     iteration # 18     ecut=    55.00 Ry     beta= 0.20
     Davidson diagonalization with overlap
     ethr =  2.44E-07,  avg # of iterations = 12.9

     total cpu time spent up to now is       40.6 secs

     total energy              =    -447.80128237 Ry
     estimated scf accuracy    <       0.00100804 Ry

     total magnetization       =     0.00 Bohr mag/cell
     absolute magnetization    =     3.00 Bohr mag/cell

     iteration # 19     ecut=    55.00 Ry     beta= 0.20
     Davidson diagonalization with overlap
     ethr =  2.44E-07,  avg # of iterations =  3.7

     total cpu time spent up to now is       41.1 secs

     total energy              =    -447.80102369 Ry
     estimated scf accuracy    <       0.00154753 Ry

     total magnetization       =     0.00 Bohr mag/cell
     absolute magnetization    =     3.00 Bohr mag/cell

     iteration # 20     ecut=    55.00 Ry     beta= 0.20
     Davidson diagonalization with overlap
     ethr =  2.44E-07,  avg # of iterations =  9.5

     total cpu time spent up to now is       41.9 secs

     total energy              =    -447.80124209 Ry
     estimated scf accuracy    <       0.00001248 Ry

     total magnetization       =    -0.00 Bohr mag/cell
     absolute magnetization    =     3.00 Bohr mag/cell

     iteration # 21     ecut=    55.00 Ry     beta= 0.20
     Davidson diagonalization with overlap
     c_bands:  1 eigenvalues not converged
     c_bands:  2 eigenvalues not converged
     c_bands:  3 eigenvalues not converged
     c_bands:  2 eigenvalues not converged
     c_bands:  1 eigenvalues not converged
     c_bands:  3 eigenvalues not converged
     c_bands:  1 eigenvalues not converged
     c_bands:  1 eigenvalues not converged
     c_bands:  2 eigenvalues not converged
     c_bands:  1 eigenvalues not converged
     c_bands:  1 eigenvalues not converged
     ethr =  3.90E-08,  avg # of iterations = 18.2

     total cpu time spent up to now is       43.0 secs

     total energy              =    -447.80131296 Ry
     estimated scf accuracy    <       0.00194820 Ry

     total magnetization       =     0.00 Bohr mag/cell
     absolute magnetization    =     3.03 Bohr mag/cell

     iteration # 22     ecut=    55.00 Ry     beta= 0.20
     Davidson diagonalization with overlap
     ethr =  3.90E-08,  avg # of iterations =  7.6

     total cpu time spent up to now is       43.7 secs

     total energy              =    -447.80123680 Ry
     estimated scf accuracy    <       0.00118593 Ry

     total magnetization       =     0.00 Bohr mag/cell
     absolute magnetization    =     3.02 Bohr mag/cell

     iteration # 23     ecut=    55.00 Ry     beta= 0.20
     Davidson diagonalization with overlap
     ethr =  3.90E-08,  avg # of iterations =  9.2

     total cpu time spent up to now is       44.4 secs

     total energy              =    -447.80109322 Ry
     estimated scf accuracy    <       0.00059066 Ry

     total magnetization       =     0.00 Bohr mag/cell
     absolute magnetization    =     3.01 Bohr mag/cell

     iteration # 24     ecut=    55.00 Ry     beta= 0.20
     Davidson diagonalization with overlap
     c_bands:  1 eigenvalues not converged
     c_bands:  1 eigenvalues not converged
     c_bands:  1 eigenvalues not converged
     c_bands:  1 eigenvalues not converged
     c_bands:  1 eigenvalues not converged
     ethr =  3.90E-08,  avg # of iterations = 16.5

     total cpu time spent up to now is       45.4 secs

     total energy              =    -447.80118383 Ry
     estimated scf accuracy    <       0.00001776 Ry

     total magnetization       =     0.00 Bohr mag/cell
     absolute magnetization    =     2.99 Bohr mag/cell

     iteration # 25     ecut=    55.00 Ry     beta= 0.20
     Davidson diagonalization with overlap
     ethr =  3.90E-08,  avg # of iterations =  1.2

     total cpu time spent up to now is       45.8 secs

     total energy              =    -447.80118078 Ry
     estimated scf accuracy    <       0.00000821 Ry

     total magnetization       =     0.00 Bohr mag/cell
     absolute magnetization    =     2.99 Bohr mag/cell

     iteration # 26     ecut=    55.00 Ry     beta= 0.20
     Davidson diagonalization with overlap
     ethr =  2.57E-08,  avg # of iterations =  6.9

     total cpu time spent up to now is       46.4 secs

     total energy              =    -447.80118001 Ry
     estimated scf accuracy    <       0.00001602 Ry

     total magnetization       =    -0.00 Bohr mag/cell
     absolute magnetization    =     3.00 Bohr mag/cell

     iteration # 27     ecut=    55.00 Ry     beta= 0.20
     Davidson diagonalization with overlap
     ethr =  2.57E-08,  avg # of iterations =  7.9

     total cpu time spent up to now is       47.1 secs

     total energy              =    -447.80118444 Ry
     estimated scf accuracy    <       0.00000811 Ry

     total magnetization       =     0.00 Bohr mag/cell
     absolute magnetization    =     2.99 Bohr mag/cell

     iteration # 28     ecut=    55.00 Ry     beta= 0.20
     Davidson diagonalization with overlap
     ethr =  2.53E-08,  avg # of iterations =  1.1

     total cpu time spent up to now is       47.5 secs

     total energy              =    -447.80118332 Ry
     estimated scf accuracy    <       0.00000385 Ry

     total magnetization       =    -0.00 Bohr mag/cell
     absolute magnetization    =     2.99 Bohr mag/cell

     iteration # 29     ecut=    55.00 Ry     beta= 0.20
     Davidson diagonalization with overlap
     ethr =  1.20E-08,  avg # of iterations =  6.5

     total cpu time spent up to now is       48.1 secs

     total energy              =    -447.80118493 Ry
     estimated scf accuracy    <       0.00000204 Ry

     total magnetization       =     0.00 Bohr mag/cell
     absolute magnetization    =     2.99 Bohr mag/cell

     iteration # 30     ecut=    55.00 Ry     beta= 0.20
     Davidson diagonalization with overlap
     ethr =  6.39E-09,  avg # of iterations =  1.2

     total cpu time spent up to now is       48.5 secs

     total energy              =    -447.80118465 Ry
     estimated scf accuracy    <       0.00000142 Ry

     total magnetization       =     0.00 Bohr mag/cell
     absolute magnetization    =     2.99 Bohr mag/cell

     iteration # 31     ecut=    55.00 Ry     beta= 0.20
     Davidson diagonalization with overlap
     ethr =  4.44E-09,  avg # of iterations =  2.7

     total cpu time spent up to now is       49.0 secs

     total energy              =    -447.80118478 Ry
     estimated scf accuracy    <       0.00000028 Ry

     total magnetization       =    -0.00 Bohr mag/cell
     absolute magnetization    =     2.99 Bohr mag/cell

     iteration # 32     ecut=    55.00 Ry     beta= 0.20
     Davidson diagonalization with overlap
     ethr =  8.83E-10,  avg # of iterations =  4.4

     total cpu time spent up to now is       49.5 secs

     total energy              =    -447.80118478 Ry
     estimated scf accuracy    <       0.00000009 Ry

     total magnetization       =     0.00 Bohr mag/cell
     absolute magnetization    =     2.99 Bohr mag/cell

     iteration # 33     ecut=    55.00 Ry     beta= 0.20
     Davidson diagonalization with overlap
     ethr =  2.85E-10,  avg # of iterations = 12.1

     total cpu time spent up to now is       50.3 secs

     total energy              =    -447.80118502 Ry
     estimated scf accuracy    <       0.00000062 Ry

     total magnetization       =     0.00 Bohr mag/cell
     absolute magnetization    =     2.99 Bohr mag/cell

     iteration # 34     ecut=    55.00 Ry     beta= 0.20
     Davidson diagonalization with overlap
     ethr =  2.85E-10,  avg # of iterations =  4.2

     total cpu time spent up to now is       50.8 secs

     total energy              =    -447.80118495 Ry
     estimated scf accuracy    <       0.00000106 Ry

     total magnetization       =     0.00 Bohr mag/cell
     absolute magnetization    =     2.99 Bohr mag/cell

     iteration # 35     ecut=    55.00 Ry     beta= 0.20
     Davidson diagonalization with overlap
     ethr =  2.85E-10,  avg # of iterations =  1.2

     total cpu time spent up to now is       51.2 secs

     total energy              =    -447.80118462 Ry
     estimated scf accuracy    <       0.00000089 Ry

     total magnetization       =     0.00 Bohr mag/cell
     absolute magnetization    =     2.99 Bohr mag/cell

     iteration # 36     ecut=    55.00 Ry     beta= 0.20
     Davidson diagonalization with overlap
     ethr =  2.85E-10,  avg # of iterations = 13.0

     total cpu time spent up to now is       52.1 secs

     total energy              =    -447.80118488 Ry
     estimated scf accuracy    <       0.00000045 Ry

     total magnetization       =     0.00 Bohr mag/cell
     absolute magnetization    =     2.99 Bohr mag/cell

     iteration # 37     ecut=    55.00 Ry     beta= 0.20
     Davidson diagonalization with overlap
     ethr =  2.85E-10,  avg # of iterations =  1.1

     total cpu time spent up to now is       52.5 secs

     total energy              =    -447.80118482 Ry
     estimated scf accuracy    <       0.00000035 Ry

     total magnetization       =    -0.00 Bohr mag/cell
     absolute magnetization    =     2.99 Bohr mag/cell

     iteration # 38     ecut=    55.00 Ry     beta= 0.20
     Davidson diagonalization with overlap
     ethr =  2.85E-10,  avg # of iterations =  5.1

     total cpu time spent up to now is       53.1 secs

     total energy              =    -447.80118485 Ry
     estimated scf accuracy    <       0.00000003 Ry

     total magnetization       =     0.00 Bohr mag/cell
     absolute magnetization    =     2.99 Bohr mag/cell

     iteration # 39     ecut=    55.00 Ry     beta= 0.20
     Davidson diagonalization with overlap
     ethr =  1.06E-10,  avg # of iterations =  2.8

     total cpu time spent up to now is       53.5 secs

     total energy              =    -447.80118485 Ry
     estimated scf accuracy    <       0.00000001 Ry

     total magnetization       =    -0.00 Bohr mag/cell
     absolute magnetization    =     2.99 Bohr mag/cell

     iteration # 40     ecut=    55.00 Ry     beta= 0.20
     Davidson diagonalization with overlap
     ethr =  4.34E-11,  avg # of iterations =  2.5

     total cpu time spent up to now is       54.0 secs

     total energy              =    -447.80118485 Ry
     estimated scf accuracy    <       0.00000001 Ry

     total magnetization       =     0.00 Bohr mag/cell
     absolute magnetization    =     2.99 Bohr mag/cell

     iteration # 41     ecut=    55.00 Ry     beta= 0.20
     Davidson diagonalization with overlap
     ethr =  3.87E-11,  avg # of iterations =  5.4

     Magnetic moment per site  (integrated on atomic sphere of radius R)
     atom   1 (R=0.179)  charge=  7.1619  magn=  1.3449
     atom   2 (R=0.179)  charge=  7.1617  magn= -1.3447
     atom   3 (R=0.179)  charge=  4.8928  magn=  0.0000
     atom   4 (R=0.179)  charge=  4.8928  magn=  0.0000

     total cpu time spent up to now is       54.5 secs

     End of self-consistent calculation

     =================== HUBBARD OCCUPATIONS ===================
     ------------------------ ATOM    1 ------------------------
     Tr[ns(  1)] (up, down, total) =   4.94384  3.52192  8.46576
     Atomic magnetic moment for atom   1 =   1.42192
     SPIN  1
     eigenvalues:
       0.986  0.986  0.990  0.990  0.990
     eigenvectors (columns):
       0.136  0.991  0.000  0.000  0.000
      -0.000  0.000 -0.265  0.433 -0.862
      -0.000  0.000 -0.627  0.601  0.495
       0.991 -0.136 -0.000 -0.000 -0.000
       0.000 -0.000  0.732  0.672  0.112
     occupation matrix ns (before diag.):
       0.986 -0.000 -0.000 -0.000  0.000
      -0.000  0.990 -0.000  0.000  0.000
      -0.000 -0.000  0.990  0.000  0.000
      -0.000  0.000  0.000  0.986 -0.000
       0.000  0.000  0.000 -0.000  0.990
     SPIN  2
     eigenvalues:
       0.521  0.521  0.521  0.979  0.979
     eigenvectors (columns):
      -0.000  0.000  0.000 -0.595  0.804
      -0.275  0.958  0.079 -0.000 -0.000
      -0.609 -0.110 -0.785 -0.000 -0.000
       0.000 -0.000 -0.000 -0.804 -0.595
       0.744  0.265 -0.614  0.000  0.000
     occupation matrix ns (before diag.):
       0.979 -0.000 -0.000 -0.000  0.000
      -0.000  0.521 -0.000  0.000  0.000
      -0.000 -0.000  0.521  0.000  0.000
      -0.000  0.000  0.000  0.979 -0.000
       0.000  0.000  0.000 -0.000  0.521
     ------------------------ ATOM    2 ------------------------
     Tr[ns(  2)] (up, down, total) =   3.52191  4.94384  8.46575
     Atomic magnetic moment for atom   2 =  -1.42193
     SPIN  1
     eigenvalues:
       0.521  0.521  0.521  0.979  0.979
     eigenvectors (columns):
      -0.000 -0.000  0.000  0.266 -0.964
      -0.264 -0.963  0.046  0.000  0.000
      -0.575  0.119 -0.810  0.000  0.000
       0.000  0.000 -0.000  0.964  0.266
       0.775 -0.240 -0.585 -0.000 -0.000
     occupation matrix ns (before diag.):
       0.979 -0.000 -0.000 -0.000  0.000
      -0.000  0.521 -0.000  0.000  0.000
      -0.000 -0.000  0.521  0.000  0.000
      -0.000  0.000  0.000  0.979 -0.000
       0.000  0.000  0.000 -0.000  0.521
     SPIN  2
     eigenvalues:
       0.986  0.986  0.990  0.990  0.990
     eigenvectors (columns):
       0.333  0.943  0.000  0.000  0.000
      -0.000  0.000 -0.259  0.694 -0.672
      -0.000  0.000 -0.602  0.428  0.674
       0.943 -0.333 -0.000  0.000 -0.000
       0.000 -0.000  0.755  0.579  0.307
     occupation matrix ns (before diag.):
       0.986 -0.000 -0.000 -0.000  0.000
      -0.000  0.990 -0.000  0.000  0.000
      -0.000 -0.000  0.990  0.000  0.000
      -0.000  0.000  0.000  0.986 -0.000
       0.000  0.000  0.000 -0.000  0.990

     Number of occupied Hubbard levels =   16.9315

 ------ SPIN UP ------------


          k = 0.0000 0.0000 0.0000 (   869 PWs)   bands (ev):

    -7.6474  -4.2632   4.5102   4.5102   4.5102   6.0776   6.0776   9.2375
     9.2375   9.5811   9.5811   9.5811  10.2877  10.2877  10.2877  13.9968

          k =-0.1360 0.1360-0.1360 (   869 PWs)   bands (ev):

    -7.4115  -4.5607   4.7014   4.7014   5.0817   6.1385   6.1385   8.5678
     8.8814   8.8814   9.3653   9.3653   9.9475  10.4464  10.4464  13.3523

          k =-0.2721 0.2721-0.2721 (   854 PWs)   bands (ev):

    -6.7915  -5.2253   5.1430   5.1430   6.2532   6.3537   6.3537   7.4823
     7.9411   7.9411   8.7171   9.1559   9.1559  10.5910  10.5910  12.6868

          k = 0.4081-0.4081 0.4081 (   862 PWs)   bands (ev):

    -6.0426  -5.9577   5.3890   5.3890   6.7565   6.8795   6.8795   7.0530
     7.0530   7.3996   7.8198   9.0453   9.0453  10.6237  10.6237  12.5174

          k =-0.0000 0.2721-0.0000 (   869 PWs)   bands (ev):

    -7.3383  -4.6342   4.7546   4.7546   5.2855   5.8903   6.1690   8.4918
     8.7250   8.7250   9.2011   9.2307   9.7543  10.7689  10.7689  13.5289

          k =-0.1360 0.4081-0.1360 (   847 PWs)   bands (ev):

    -6.8680  -5.1053   5.0370   5.1286   5.5256   6.2496   6.3414   7.4722
     7.9460   8.2379   8.9691   9.1963   9.8862  10.3890  10.7536  12.9963

          k = 0.5441-0.2721 0.5441 (   842 PWs)   bands (ev):

    -6.1965  -5.7260   4.9831   5.5075   5.6682   6.7960   6.8137   7.0037
     7.0174   7.9355   8.6480   9.1724   9.6876  10.3201  10.4784  12.6158

          k = 0.4081-0.1360 0.4081 (   848 PWs)   bands (ev):

    -6.4174  -5.5288   4.9505   5.4719   5.9037   6.3303   6.7841   6.8790
     7.5548   8.3049   8.5081   9.3615   9.3954  10.1444  10.5820  12.6470

          k = 0.2721 0.0000 0.2721 (   853 PWs)   bands (ev):

    -7.0550  -4.9408   4.8454   5.0154   5.9039   6.0983   6.1568   7.5569
     8.3505   8.6164   8.9543   9.5943   9.6231  10.0006  10.7636  13.0575

          k =-0.0000 0.5441-0.0000 (   837 PWs)   bands (ev):

    -6.6205  -5.2602   4.3948   5.4408   5.4408   6.3561   6.6981   7.2440
     7.5501   7.5501   9.2100   9.2181  10.4364  10.6415  10.6415  13.2880

          k = 0.6802-0.1360 0.6802 (   847 PWs)   bands (ev):

    -6.2182  -5.5679   3.9489   5.6604   5.8719   6.5558   6.5914   6.8677
     7.0078   7.6950   9.2517   9.4129  10.1413  10.3550  11.0350  12.8389

          k = 0.5441 0.0000 0.5441 (   856 PWs)   bands (ev):

    -5.9527  -5.8537   4.3423   5.3693   5.9712   6.2883   6.7180   6.8678
     7.0468   8.2155   9.4490   9.4627   9.4916   9.9743  10.9022  12.5846

          k = 0.0000-0.8162 0.0000 (   846 PWs)   bands (ev):

    -6.1898  -5.5333   3.4387   6.3654   6.3654   6.4516   6.4584   6.4584
     6.7330   7.2943   9.2124   9.6226  10.3960  10.3960  11.3336  12.5616

          k = 0.5441-0.2721 0.8162 (   851 PWs)   bands (ev):

    -6.4088  -5.4719   4.7171   5.2275   5.6152   6.4542   6.7588   6.8027
     7.5293   8.1533   8.9369   9.3090  10.0240  10.0846  10.7217  12.8831

          k = 0.4081-0.1360 0.6802 (   842 PWs)   bands (ev):

    -5.9158  -5.8924   4.6516   4.9153   5.9294   6.4434   6.6860   6.8781
     7.0621   8.6291   8.8439   9.3579   9.6571  10.0968  10.9995  12.6506

          k =-0.2721-0.8162-0.0000 (   858 PWs)   bands (ev):

    -6.0320  -5.7076   3.9552   5.2393   6.3561   6.3793   6.3916   6.6468
     7.0903   8.1394   9.3156   9.5618   9.7031  10.1140  11.6715  12.5891

 ------ SPIN DOWN ----------


          k = 0.0000 0.0000 0.0000 (   869 PWs)   bands (ev):

    -7.6474  -4.2632   4.5102   4.5102   4.5102   6.0776   6.0776   9.2376
     9.2376   9.5811   9.5811   9.5811  10.2877  10.2877  10.2877  13.9969

          k =-0.1360 0.1360-0.1360 (   869 PWs)   bands (ev):

    -7.4114  -4.5607   4.7014   4.7014   5.0816   6.1384   6.1384   8.5678
     8.8814   8.8814   9.3653   9.3653   9.9475  10.4464  10.4464  13.3523

          k =-0.2721 0.2721-0.2721 (   854 PWs)   bands (ev):

    -6.7915  -5.2253   5.1429   5.1429   6.2532   6.3537   6.3537   7.4823
     7.9411   7.9411   8.7171   9.1559   9.1559  10.5909  10.5909  12.6868

          k = 0.4081-0.4081 0.4081 (   862 PWs)   bands (ev):

    -6.0426  -5.9577   5.3889   5.3889   6.7565   6.8796   6.8796   7.0529
     7.0529   7.3996   7.8198   9.0454   9.0454  10.6237  10.6237  12.5174

          k =-0.0000 0.2721-0.0000 (   869 PWs)   bands (ev):

    -7.3383  -4.6342   4.7546   4.7546   5.2855   5.8903   6.1690   8.4918
     8.7250   8.7250   9.2011   9.2307   9.7543  10.7689  10.7689  13.5289

          k =-0.1360 0.4081-0.1360 (   847 PWs)   bands (ev):

    -6.8679  -5.1053   5.0370   5.1286   5.5256   6.2496   6.3414   7.4721
     7.9459   8.2379   8.9691   9.1963   9.8862  10.3890  10.7536  12.9963

          k = 0.5441-0.2721 0.5441 (   842 PWs)   bands (ev):

    -6.1965  -5.7260   4.9831   5.5075   5.6682   6.7959   6.8136   7.0036
     7.0174   7.9355   8.6480   9.1725   9.6876  10.3201  10.4784  12.6158

          k = 0.4081-0.1360 0.4081 (   848 PWs)   bands (ev):

    -6.4174  -5.5288   4.9505   5.4719   5.9037   6.3302   6.7841   6.8789
     7.5548   8.3049   8.5081   9.3615   9.3954  10.1444  10.5820  12.6470

          k = 0.2721 0.0000 0.2721 (   853 PWs)   bands (ev):

    -7.0550  -4.9408   4.8454   5.0154   5.9038   6.0983   6.1568   7.5569
     8.3505   8.6164   8.9543   9.5943   9.6231  10.0006  10.7636  13.0575

          k =-0.0000 0.5441-0.0000 (   837 PWs)   bands (ev):

    -6.6205  -5.2602   4.3948   5.4407   5.4407   6.3560   6.6981   7.2440
     7.5501   7.5501   9.2100   9.2181  10.4364  10.6415  10.6415  13.2881

          k = 0.6802-0.1360 0.6802 (   847 PWs)   bands (ev):

    -6.2182  -5.5679   3.9489   5.6604   5.8719   6.5558   6.5914   6.8677
     7.0077   7.6950   9.2517   9.4130  10.1413  10.3550  11.0350  12.8389

          k = 0.5441 0.0000 0.5441 (   856 PWs)   bands (ev):

    -5.9527  -5.8537   4.3423   5.3692   5.9712   6.2883   6.7179   6.8678
     7.0468   8.2154   9.4490   9.4627   9.4916   9.9743  10.9022  12.5847

          k = 0.0000-0.8162 0.0000 (   846 PWs)   bands (ev):

    -6.1898  -5.5333   3.4387   6.3653   6.3653   6.4516   6.4584   6.4584
     6.7330   7.2943   9.2124   9.6226  10.3960  10.3960  11.3336  12.5616

          k = 0.5441-0.2721 0.8162 (   851 PWs)   bands (ev):

    -6.4088  -5.4719   4.7171   5.2275   5.6152   6.4541   6.7588   6.8026
     7.5293   8.1533   8.9369   9.3090  10.0240  10.0846  10.7217  12.8831

          k = 0.4081-0.1360 0.6802 (   842 PWs)   bands (ev):

    -5.9158  -5.8924   4.6516   4.9153   5.9293   6.4433   6.6859   6.8781
     7.0621   8.6291   8.8439   9.3579   9.6571  10.0968  10.9995  12.6506

          k =-0.2721-0.8162-0.0000 (   858 PWs)   bands (ev):

    -6.0320  -5.7076   3.9552   5.2393   6.3560   6.3792   6.3915   6.6467
     7.0902   8.1394   9.3156   9.5618   9.7031  10.1140  11.6716  12.5891

     highest occupied level (ev):    13.9969

!    total energy              =    -447.80118485 Ry
     total all-electron energy =     -6377.324466 Ry
     estimated scf accuracy    <          1.5E-11 Ry

     The total energy is the sum of the following terms:
     one-electron contribution =     -16.87116526 Ry
     hartree contribution      =      49.38963912 Ry
     xc contribution           =     -97.36386146 Ry
     ewald contribution        =    -199.23907431 Ry
     Hubbard energy            =       0.47220003 Ry
     one-center paw contrib.   =    -184.18892297 Ry

     total magnetization       =     0.00 Bohr mag/cell
     absolute magnetization    =     2.99 Bohr mag/cell

     convergence has been achieved in  41 iterations


     Computing stress (Cartesian axis) and pressure

     stres_hub    :      0.89s CPU      0.93s WALL (       2 calls)
     dprojdepsilo :      0.82s CPU      0.85s WALL (     576 calls)
     dprojdeps1   :      0.04s CPU      0.04s WALL (     576 calls)
     dprojdeps2   :      0.52s CPU      0.54s WALL (     576 calls)
[...]
     absolute magnetization    =     2.97 Bohr mag/cell

     iteration # 55     ecut=    55.00 Ry     beta= 0.20
     Davidson diagonalization with overlap
     ethr =  2.53E-11,  avg # of iterations =  3.2

     total cpu time spent up to now is      191.5 secs

     total energy              =    -447.82995487 Ry
     estimated scf accuracy    <       0.00000001 Ry

     total magnetization       =    -0.00 Bohr mag/cell
     absolute magnetization    =     2.97 Bohr mag/cell

     iteration # 56     ecut=    55.00 Ry     beta= 0.20
     Davidson diagonalization with overlap
     ethr =  2.53E-11,  avg # of iterations =  2.1

     total cpu time spent up to now is      192.3 secs

     total energy              =    -447.82995487 Ry
     estimated scf accuracy    <          6.0E-09 Ry

     total magnetization       =    -0.00 Bohr mag/cell
     absolute magnetization    =     2.97 Bohr mag/cell

     iteration # 57     ecut=    55.00 Ry     beta= 0.20
     Davidson diagonalization with overlap
     ethr =  1.87E-11,  avg # of iterations =  2.2

     total cpu time spent up to now is      193.2 secs

     total energy              =    -447.82995487 Ry
     estimated scf accuracy    <          2.7E-09 Ry

     total magnetization       =     0.00 Bohr mag/cell
     absolute magnetization    =     2.97 Bohr mag/cell

     iteration # 58     ecut=    55.00 Ry     beta= 0.20
     Davidson diagonalization with overlap
     ethr =  8.47E-12,  avg # of iterations =  6.4

     total cpu time spent up to now is      194.2 secs

     total energy              =    -447.82995488 Ry
     estimated scf accuracy    <          1.1E-10 Ry

     total magnetization       =    -0.00 Bohr mag/cell
     absolute magnetization    =     2.97 Bohr mag/cell

     iteration # 59     ecut=    55.00 Ry     beta= 0.20
     Davidson diagonalization with overlap
     c_bands:  1 eigenvalues not converged
     ethr =  3.56E-13,  avg # of iterations = 11.2

     total cpu time spent up to now is      195.7 secs

     total energy              =    -447.82995488 Ry
     estimated scf accuracy    <          2.0E-10 Ry

     total magnetization       =    -0.00 Bohr mag/cell
     absolute magnetization    =     2.97 Bohr mag/cell

     iteration # 60     ecut=    55.00 Ry     beta= 0.20
     Davidson diagonalization with overlap
     c_bands:  1 eigenvalues not converged
     c_bands:  1 eigenvalues not converged
     ethr =  3.56E-13,  avg # of iterations = 16.4

     total cpu time spent up to now is      197.6 secs

     total energy              =    -447.82995488 Ry
     estimated scf accuracy    <          5.1E-09 Ry

     total magnetization       =    -0.00 Bohr mag/cell
     absolute magnetization    =     2.97 Bohr mag/cell

     iteration # 61     ecut=    55.00 Ry     beta= 0.20
     Davidson diagonalization with overlap
     c_bands:  1 eigenvalues not converged
     c_bands:  1 eigenvalues not converged
     c_bands:  1 eigenvalues not converged
     c_bands:  2 eigenvalues not converged
     ethr =  3.56E-13,  avg # of iterations = 18.2

     total cpu time spent up to now is      199.7 secs

     total energy              =    -447.82995488 Ry
     estimated scf accuracy    <          1.9E-10 Ry

     total magnetization       =     0.00 Bohr mag/cell
     absolute magnetization    =     2.97 Bohr mag/cell

     iteration # 62     ecut=    55.00 Ry     beta= 0.20
     Davidson diagonalization with overlap
     ethr =  3.56E-13,  avg # of iterations =  1.9

     total cpu time spent up to now is      200.6 secs

     total energy              =    -447.82995488 Ry
     estimated scf accuracy    <          7.3E-11 Ry

     total magnetization       =     0.00 Bohr mag/cell
     absolute magnetization    =     2.97 Bohr mag/cell

     iteration # 63     ecut=    55.00 Ry     beta= 0.20
     Davidson diagonalization with overlap
     ethr =  2.29E-13,  avg # of iterations = 12.6

     total cpu time spent up to now is      202.2 secs

     total energy              =    -447.82995488 Ry
     estimated scf accuracy    <          7.4E-10 Ry

     total magnetization       =    -0.00 Bohr mag/cell
     absolute magnetization    =     2.97 Bohr mag/cell

     iteration # 64     ecut=    55.00 Ry     beta= 0.20
     Davidson diagonalization with overlap
     ethr =  2.29E-13,  avg # of iterations = 11.1

     total cpu time spent up to now is      203.6 secs

     total energy              =    -447.82995488 Ry
     estimated scf accuracy    <          2.7E-11 Ry

     total magnetization       =    -0.00 Bohr mag/cell
     absolute magnetization    =     2.97 Bohr mag/cell

     iteration # 65     ecut=    55.00 Ry     beta= 0.20
     Davidson diagonalization with overlap
     ethr =  1.00E-13,  avg # of iterations =  6.9

     total cpu time spent up to now is      204.7 secs

     total energy              =    -447.82995488 Ry
     estimated scf accuracy    <          1.4E-10 Ry

     total magnetization       =    -0.00 Bohr mag/cell
     absolute magnetization    =     2.97 Bohr mag/cell

     iteration # 66     ecut=    55.00 Ry     beta= 0.20
     Davidson diagonalization with overlap
     ethr =  1.00E-13,  avg # of iterations =  1.8

     total cpu time spent up to now is      205.5 secs

     total energy              =    -447.82995488 Ry
     estimated scf accuracy    <          8.5E-11 Ry

     total magnetization       =    -0.00 Bohr mag/cell
     absolute magnetization    =     2.97 Bohr mag/cell

     iteration # 67     ecut=    55.00 Ry     beta= 0.20
     Davidson diagonalization with overlap
     ethr =  1.00E-13,  avg # of iterations =  6.9

     Magnetic moment per site  (integrated on atomic sphere of radius R)
     atom   1 (R=0.179)  charge=  7.1706  magn=  1.3374
     atom   2 (R=0.179)  charge=  7.1706  magn= -1.3374
     atom   3 (R=0.179)  charge=  4.9095  magn= -0.0000
     atom   4 (R=0.179)  charge=  4.9095  magn= -0.0000

     total cpu time spent up to now is      206.6 secs

     End of self-consistent calculation

     =================== HUBBARD OCCUPATIONS ===================
     ------------------------ ATOM    1 ------------------------
     Tr[ns(  1)] (up, down, total) =   4.94219  3.53040  8.47259
     Atomic magnetic moment for atom   1 =   1.41179
     SPIN  1
     eigenvalues:
       0.986  0.986  0.990  0.990  0.990
     eigenvectors (columns):
       0.302 -0.953 -0.000 -0.000  0.000
      -0.000 -0.000  0.266  0.834 -0.483
      -0.000 -0.000  0.611  0.241  0.754
       0.953  0.302  0.000  0.000 -0.000
       0.000  0.000 -0.745  0.496  0.446
     occupation matrix ns (before diag.):
       0.986 -0.000 -0.000 -0.000  0.000
      -0.000  0.990 -0.000  0.000  0.000
      -0.000 -0.000  0.990  0.000  0.000
      -0.000  0.000  0.000  0.986 -0.000
       0.000  0.000  0.000 -0.000  0.990
     SPIN  2
     eigenvalues:
       0.524  0.524  0.524  0.979  0.979
     eigenvectors (columns):
      -0.000  0.000  0.000 -0.488  0.873
      -0.257  0.965 -0.058 -0.000 -0.000
      -0.596 -0.205 -0.776 -0.000 -0.000
       0.000 -0.000 -0.000 -0.873 -0.488
       0.761  0.165 -0.628  0.000  0.000
     occupation matrix ns (before diag.):
       0.979 -0.000 -0.000 -0.000  0.000
      -0.000  0.524 -0.000  0.000  0.000
      -0.000 -0.000  0.524  0.000  0.000
      -0.000  0.000  0.000  0.979 -0.000
       0.000  0.000  0.000 -0.000  0.524
     ------------------------ ATOM    2 ------------------------
     Tr[ns(  2)] (up, down, total) =   3.53040  4.94219  8.47259
     Atomic magnetic moment for atom   2 =  -1.41179
     SPIN  1
     eigenvalues:
       0.524  0.524  0.524  0.979  0.979
     eigenvectors (columns):
      -0.000 -0.000 -0.000  0.142 -0.990
      -0.268 -0.910 -0.316  0.000  0.000
      -0.587 -0.106  0.802  0.000  0.000
       0.000  0.000  0.000  0.990  0.142
       0.764 -0.401  0.506 -0.000 -0.000
     occupation matrix ns (before diag.):
       0.979 -0.000 -0.000 -0.000  0.000
      -0.000  0.524 -0.000  0.000  0.000
      -0.000 -0.000  0.524  0.000  0.000
      -0.000  0.000  0.000  0.979 -0.000
       0.000  0.000  0.000 -0.000  0.524
     SPIN  2
     eigenvalues:
       0.986  0.986  0.990  0.990  0.990
     eigenvectors (columns):
      -0.157 -0.988  0.000  0.000  0.000
       0.000 -0.000 -0.259  0.558 -0.788
       0.000 -0.000 -0.611  0.538  0.581
      -0.988  0.157 -0.000 -0.000 -0.000
      -0.000  0.000  0.748  0.632  0.202
     occupation matrix ns (before diag.):
       0.986 -0.000 -0.000 -0.000  0.000
      -0.000  0.990 -0.000  0.000  0.000
      -0.000 -0.000  0.990  0.000  0.000
      -0.000  0.000  0.000  0.986 -0.000
       0.000  0.000  0.000 -0.000  0.990

     Number of occupied Hubbard levels =   16.9452

 ------ SPIN UP ------------


          k = 0.0000 0.0000 0.0000 (  1471 PWs)   bands (ev):

    -7.4976  -4.0091   4.6745   4.6745   4.6745   6.2951   6.2951   9.5276
     9.5276   9.8422   9.8422   9.8422  10.5123  10.5123  10.5123  14.2741

          k =-0.1367 0.1367-0.1367 (  1525 PWs)   bands (ev):

    -7.2556  -4.3200   4.8712   4.8712   5.2693   6.3547   6.3547   8.7894
     9.1545   9.1545   9.6180   9.6180  10.2128  10.6933  10.6933  13.6158

          k =-0.2734 0.2734-0.2734 (  1528 PWs)   bands (ev):

    -6.6193  -5.0088   5.3304   5.3304   6.4813   6.5646   6.5646   7.6766
     8.1873   8.1873   8.9727   9.3965   9.3965  10.8517  10.8517  12.9388

          k = 0.4102-0.4102 0.4102 (  1538 PWs)   bands (ev):

    -5.8498  -5.7628   5.5909   5.5909   6.9850   7.0662   7.0662   7.3082
     7.3082   7.6000   8.0786   9.2785   9.2785  10.8935  10.8935  12.7636

          k =-0.0000 0.2734-0.0000 (  1519 PWs)   bands (ev):

    -7.1803  -4.3966   4.9250   4.9250   5.4811   6.0933   6.3894   8.7602
     8.9567   8.9567   9.4501   9.5202  10.0068  11.0256  11.0256  13.7917

          k =-0.1367 0.4102-0.1367 (  1539 PWs)   bands (ev):

    -6.6973  -4.8853   5.2167   5.3094   5.7086   6.4844   6.5620   7.7066
     8.1705   8.4737   9.2244   9.4687  10.1290  10.6288  11.0048  13.2541

          k = 0.5469-0.2734 0.5469 (  1547 PWs)   bands (ev):

    -6.0074  -5.5244   5.1574   5.7063   5.8428   7.0149   7.0613   7.2199
     7.2761   8.1622   8.8932   9.4199   9.9185  10.5630  10.7333  12.8651

          k = 0.4102-0.1367 0.4102 (  1543 PWs)   bands (ev):

    -6.2348  -5.3213   5.1260   5.6736   6.0821   6.5301   7.0422   7.1250
     7.7963   8.5215   8.7517   9.5962   9.6533  10.3964  10.8195  12.8988

          k = 0.2734 0.0000 0.2734 (  1530 PWs)   bands (ev):

    -6.8897  -4.7148   5.0181   5.1961   6.1229   6.3061   6.3659   7.7808
     8.6172   8.8321   9.2191   9.8725   9.8736  10.2357  11.0077  13.3167

          k =-0.0000 0.5469-0.0000 (  1544 PWs)   bands (ev):

    -6.4415  -5.0463   4.5564   5.6241   5.6241   6.5822   6.9581   7.4851
     7.7611   7.7611   9.4758   9.5070  10.6653  10.8741  10.8741  13.5461

          k = 0.6836-0.1367 0.6836 (  1541 PWs)   bands (ev):

    -6.0270  -5.3630   4.0954   5.8397   6.0710   6.7873   6.8327   7.0663
     7.2643   7.9419   9.5300   9.6820  10.3655  10.5836  11.2718  13.0941

          k = 0.5469 0.0000 0.5469 (  1536 PWs)   bands (ev):

    -5.7572  -5.6535   4.4973   5.5442   6.1948   6.4761   6.9750   7.1182
     7.2708   8.4765   9.6739   9.7126   9.7694  10.2058  11.1352  12.8350

          k = 0.0000-0.8203 0.0000 (  1572 PWs)   bands (ev):

    -5.9962  -5.3280   3.5781   6.6090   6.6090   6.6205   6.6205   6.6807
     6.9635   7.5851   9.5009   9.8996  10.6140  10.6140  11.5622  12.8095

          k = 0.5469-0.2734 0.8203 (  1536 PWs)   bands (ev):

    -6.2248  -5.2632   4.8840   5.3934   5.8160   6.6703   7.0003   7.0657
     7.7678   8.3664   9.1947   9.5850  10.2735  10.3078  10.9567  13.1407

          k = 0.4102-0.1367 0.6836 (  1544 PWs)   bands (ev):

    -5.7185  -5.6944   4.8122   5.0700   6.1458   6.6676   6.9326   7.1266
     7.2881   8.8637   9.0883   9.6210   9.9212  10.3083  11.2363  12.9007

          k =-0.2734-0.8203-0.0000 (  1544 PWs)   bands (ev):

    -5.8357  -5.5058   4.1024   5.4034   6.5865   6.5936   6.6374   6.8798
     7.3203   8.3870   9.5967   9.8380   9.9359  10.3202  11.9229  12.8379

 ------ SPIN DOWN ----------


          k = 0.0000 0.0000 0.0000 (  1471 PWs)   bands (ev):

    -7.4976  -4.0091   4.6745   4.6745   4.6745   6.2951   6.2951   9.5276
     9.5276   9.8422   9.8422   9.8422  10.5123  10.5123  10.5123  14.2741

          k =-0.1367 0.1367-0.1367 (  1525 PWs)   bands (ev):

    -7.2556  -4.3200   4.8712   4.8712   5.2693   6.3547   6.3547   8.7894
     9.1545   9.1545   9.6180   9.6180  10.2128  10.6933  10.6933  13.6158

          k =-0.2734 0.2734-0.2734 (  1528 PWs)   bands (ev):

    -6.6193  -5.0088   5.3304   5.3304   6.4813   6.5647   6.5647   7.6766
     8.1873   8.1873   8.9727   9.3965   9.3965  10.8517  10.8517  12.9388

          k = 0.4102-0.4102 0.4102 (  1538 PWs)   bands (ev):

    -5.8498  -5.7628   5.5909   5.5909   6.9850   7.0662   7.0662   7.3082
     7.3082   7.6000   8.0786   9.2785   9.2785  10.8936  10.8936  12.7636

          k =-0.0000 0.2734-0.0000 (  1519 PWs)   bands (ev):

    -7.1803  -4.3966   4.9250   4.9250   5.4811   6.0933   6.3894   8.7602
     8.9567   8.9567   9.4501   9.5202  10.0068  11.0256  11.0256  13.7917

          k =-0.1367 0.4102-0.1367 (  1539 PWs)   bands (ev):

    -6.6973  -4.8853   5.2167   5.3094   5.7086   6.4844   6.5620   7.7066
     8.1705   8.4737   9.2244   9.4687  10.1290  10.6288  11.0048  13.2541

          k = 0.5469-0.2734 0.5469 (  1547 PWs)   bands (ev):

    -6.0074  -5.5244   5.1574   5.7063   5.8428   7.0149   7.0613   7.2199
     7.2761   8.1622   8.8932   9.4199   9.9185  10.5630  10.7333  12.8651

          k = 0.4102-0.1367 0.4102 (  1543 PWs)   bands (ev):

    -6.2348  -5.3213   5.1260   5.6736   6.0821   6.5301   7.0422   7.1250
     7.7963   8.5215   8.7517   9.5962   9.6533  10.3964  10.8195  12.8988

          k = 0.2734 0.0000 0.2734 (  1530 PWs)   bands (ev):

    -6.8897  -4.7148   5.0181   5.1961   6.1229   6.3061   6.3659   7.7808
     8.6172   8.8322   9.2191   9.8725   9.8736  10.2357  11.0077  13.3167

          k =-0.0000 0.5469-0.0000 (  1544 PWs)   bands (ev):

    -6.4415  -5.0463   4.5564   5.6241   5.6241   6.5822   6.9581   7.4851
     7.7611   7.7611   9.4758   9.5069  10.6653  10.8741  10.8741  13.5461

          k = 0.6836-0.1367 0.6836 (  1541 PWs)   bands (ev):

    -6.0270  -5.3630   4.0954   5.8397   6.0710   6.7873   6.8327   7.0663
     7.2643   7.9419   9.5300   9.6820  10.3655  10.5836  11.2718  13.0941

          k = 0.5469 0.0000 0.5469 (  1536 PWs)   bands (ev):

    -5.7572  -5.6535   4.4973   5.5442   6.1948   6.4761   6.9750   7.1182
     7.2708   8.4765   9.6739   9.7126   9.7694  10.2058  11.1352  12.8350

          k = 0.0000-0.8203 0.0000 (  1572 PWs)   bands (ev):

    -5.9962  -5.3280   3.5781   6.6090   6.6090   6.6205   6.6205   6.6807
     6.9635   7.5851   9.5009   9.8996  10.6140  10.6140  11.5622  12.8095

          k = 0.5469-0.2734 0.8203 (  1536 PWs)   bands (ev):

    -6.2248  -5.2632   4.8840   5.3934   5.8160   6.6703   7.0003   7.0657
     7.7678   8.3664   9.1947   9.5850  10.2735  10.3078  10.9567  13.1407

          k = 0.4102-0.1367 0.6836 (  1544 PWs)   bands (ev):

    -5.7185  -5.6944   4.8122   5.0700   6.1458   6.6676   6.9326   7.1266
     7.2881   8.8637   9.0883   9.6210   9.9212  10.3083  11.2363  12.9007

          k =-0.2734-0.8203-0.0000 (  1544 PWs)   bands (ev):

    -5.8357  -5.5058   4.1024   5.4034   6.5865   6.5936   6.6374   6.8798
     7.3203   8.3871   9.5967   9.8380   9.9359  10.3202  11.9229  12.8379

     highest occupied level (ev):    14.2741

!    total energy              =    -447.82995488 Ry
     total all-electron energy =     -6377.353236 Ry
     estimated scf accuracy    <          2.9E-12 Ry

     The total energy is the sum of the following terms:
     one-electron contribution =     -15.42216814 Ry
     hartree contribution      =      48.95368607 Ry
     xc contribution           =     -97.40289927 Ry
     ewald contribution        =    -200.24131452 Ry
     Hubbard energy            =       0.47317510 Ry
     one-center paw contrib.   =    -184.19043412 Ry

     total magnetization       =     0.00 Bohr mag/cell
     absolute magnetization    =     2.97 Bohr mag/cell

     convergence has been achieved in  67 iterations


     Computing stress (Cartesian axis) and pressure

     stres_hub    :      3.31s CPU      3.44s WALL (       6 calls)
     dprojdepsilo :      3.02s CPU      3.15s WALL (    1728 calls)
     dprojdeps1   :      0.17s CPU      0.17s WALL (    1728 calls)
     dprojdeps2   :      1.92s CPU      1.98s WALL (    1728 calls)
     dprojdeps3   :      0.93s CPU      0.99s WALL (    1728 calls)
          total   stress  (Ry/bohr**3)                   (kbar)     P=      114.96
   0.00078147  -0.00000000  -0.00000000          114.96       -0.00       -0.00
  -0.00000000   0.00078147   0.00000000           -0.00      114.96        0.00
  -0.00000000   0.00000000   0.00078147           -0.00        0.00      114.96


     Writing all to output data dir /Users/kirill/Documents/dft/volume/NiO_struct_opt_dft_U/out/NiO.save/ :
     XML data file, charge density, pseudopotentials, collected wavefunctions

     init_run     :      1.33s CPU      1.36s WALL (       2 calls)
     electrons    :    196.17s CPU    199.27s WALL (       6 calls)
     update_pot   :      1.03s CPU      1.04s WALL (       4 calls)
     stress       :      4.86s CPU      5.00s WALL (       6 calls)

     Called by init_run:
     wfcinit      :      0.38s CPU      0.38s WALL (       2 calls)
     potinit      :      0.56s CPU      0.56s WALL (       2 calls)
     hinit0       :      0.28s CPU      0.28s WALL (       2 calls)

     Called by electrons:
     c_bands      :     95.79s CPU     98.20s WALL (     269 calls)
     sum_band     :     21.56s CPU     21.88s WALL (     269 calls)
     v_of_rho     :      4.61s CPU      4.67s WALL (     272 calls)
     newd         :      5.89s CPU      5.92s WALL (     272 calls)
     PAW_pot      :     69.91s CPU     70.17s WALL (     276 calls)
     mix_rho      :      0.54s CPU      0.54s WALL (     269 calls)

     Called by c_bands:
     init_us_2    :      0.96s CPU      0.97s WALL (   17984 calls)
     cegterg      :     93.21s CPU     95.55s WALL (    8640 calls)

     Called by *egterg:
     cdiaghg      :     11.15s CPU     11.19s WALL (   56217 calls)
     h_psi        :     70.21s CPU     72.05s WALL (   56536 calls)
     s_psi        :      2.28s CPU      2.33s WALL (   57112 calls)
     g_psi        :      0.18s CPU      0.19s WALL (   47832 calls)

     Called by h_psi:
     h_psi:calbec :      3.74s CPU      3.87s WALL (   56536 calls)
     vloc_psi     :     60.75s CPU     62.20s WALL (   56536 calls)
                                        0.00s GPU  (   56536 calls)
     add_vuspsi   :      2.40s CPU      2.44s WALL (   56536 calls)
     vhpsi        :      3.18s CPU      3.32s WALL (   56536 calls)

     General routines
     calbec       :      8.93s CPU      9.28s WALL (  190704 calls)
     fft          :      3.06s CPU      3.09s WALL (    6924 calls)
     ffts         :      0.10s CPU      0.11s WALL (    1082 calls)
     fftw         :     64.72s CPU     66.08s WALL ( 1141222 calls)
     interpolate  :      0.26s CPU      0.26s WALL (     544 calls)

     Parallel routines

     Hubbard U routines
     new_ns       :      0.41s CPU      0.44s WALL (     269 calls)
     vhpsi        :      3.18s CPU      3.32s WALL (   56536 calls)
     stres_hub    :      3.31s CPU      3.44s WALL (       6 calls)

     PWSCF        :   3m24.73s CPU   3m28.03s WALL


   This run was terminated on:  19:56:55  24Mar2026            

=------------------------------------------------------------------------------=
   JOB DONE.
=------------------------------------------------------------------------------=
