
     Program PWSCF v.7.5 starts on 18Mar2026 at 16: 8:21 

     This program is part of the open-source Quantum ESPRESSO suite
     for quantum simulation of materials; please cite
         "P. Giannozzi et al., J. Phys.:Condens. Matter 21 395502 (2009);
         "P. Giannozzi et al., J. Phys.:Condens. Matter 29 465901 (2017);
         "P. Giannozzi et al., J. Chem. Phys. 152 154105 (2020);
          URL http://www.quantum-espresso.org", 
     in publications or presentations arising from this work. More details at
     http://www.quantum-espresso.org/quote

     Parallel version (MPI), running on     5 processors

     MPI processes distributed on     1 nodes
     0 MiB available memory on the printing compute node when the environment starts

     Reading input from NiO.vc_relax_dft_U.in

     Current dimensions of program PWSCF are:
     Max number of different atomic species (ntypx) = 10
     Max number of k-points (npk) =  40000
     Max angular momentum in pseudopotentials (lmaxx) =  4
     file Ni.pbesol-n-rrkjus_psl.0.1.UPF: wavefunction(s)  3D renormalized
     file Ni.pbesol-n-rrkjus_psl.0.1.UPF: wavefunction(s)  3D renormalized

     R & G space division:  proc/nbgrp/npool/nimage =       5
     Subspace diagonalization in iterative solution of the eigenvalue problem:
     a serial algorithm will be used


     Parallelization info
     --------------------
     sticks:   dense  smooth     PW     G-vecs:    dense   smooth      PW
     Min         449     179     58                10627     2697     500
     Max         450     180     60                10628     2698     501
     Sum        2249     899    295                53137    13489    2503

     Using Slab Decomposition



     bravais-lattice index     =            5
     lattice parameter (alat)  =       9.6470  a.u.
     unit-cell volume          =     244.3487 (a.u.)^3
     number of atoms/cell      =            4
     number of atomic types    =            3
     number of electrons       =        32.00 (up:  16.00, down:  16.00)
     number of Kohn-Sham states=           16
     kinetic-energy cutoff     =      55.0000  Ry
     charge density cutoff     =     550.0000  Ry
     scf convergence threshold =      1.0E-09
     mixing beta               =       0.2000
     number of iterations used =            8  plain     mixing
     energy convergence thresh.=      1.0E-05
     force convergence thresh. =      1.0E-04
     press convergence thresh. =      5.0E-01
     Exchange-correlation= PBESOL
                           (   1   4  10   8   0   0   0)
     nstep                     =           50

     Hubbard projectors: ortho-atomic
     Hubbard parameters of DFT+U (Dudarev formulation) in eV:
     U(Ni1-3d) =  7.6000
     U(Ni2-3d) =  7.6000

     Internal variables: lda_plus_u =T, lda_plus_u_kind = 0

     Internal variables: orbital_resolved =F, hub_pot_fix =F, apply_U = F

     celldm(1)=   9.647000  celldm(2)=   0.000000  celldm(3)=   0.000000
     celldm(4)=   0.833333  celldm(5)=   0.000000  celldm(6)=   0.000000

     crystal axes: (cart. coord. in units of alat)
               a(1) = (   0.288675  -0.166667   0.942809 )  
               a(2) = (   0.000000   0.333333   0.942809 )  
               a(3) = (  -0.288675  -0.166667   0.942809 )  

     reciprocal axes: (cart. coord. in units 2 pi/alat)
               b(1) = (  1.732051 -1.000000  0.353553 )  
               b(2) = ( -0.000000  2.000000  0.353553 )  
               b(3) = ( -1.732051 -1.000000  0.353553 )  


     PseudoPot. # 1 for Ni read from file:
     /Users/kirill/Documents/dft/volume/NiO_struct_opt_dft_U/../../pot/Ni.pbesol-n-rrkjus_psl.0.1.UPF
     MD5 check sum: 8a65ecc087b22b902f7e15bb4f925df7
     Pseudo is Ultrasoft + core correction, Zval = 10.0
     Generated using "atomic" code by A. Dal Corso  v.5.0.2 svn rev. 9415
     Using radial grid of 1195 points,  6 beta functions with: 
                l(1) =   0
                l(2) =   0
                l(3) =   1
                l(4) =   1
                l(5) =   2
                l(6) =   2
     Q(r) pseudized with 0 coefficients 


     PseudoPot. # 2 for Ni read from file:
     /Users/kirill/Documents/dft/volume/NiO_struct_opt_dft_U/../../pot/Ni.pbesol-n-rrkjus_psl.0.1.UPF
     MD5 check sum: 8a65ecc087b22b902f7e15bb4f925df7
     Pseudo is Ultrasoft + core correction, Zval = 10.0
     Generated using "atomic" code by A. Dal Corso  v.5.0.2 svn rev. 9415
     Using radial grid of 1195 points,  6 beta functions with: 
                l(1) =   0
                l(2) =   0
                l(3) =   1
                l(4) =   1
                l(5) =   2
                l(6) =   2
     Q(r) pseudized with 0 coefficients 


     PseudoPot. # 3 for O  read from file:
     /Users/kirill/Documents/dft/volume/NiO_struct_opt_dft_U/../../pot/O.pbesol-n-rrkjus_psl.1.0.0.UPF
     MD5 check sum: 69b2cf9905362d8720b1d83b4ba3171b
     Pseudo is Ultrasoft + core correction, Zval =  6.0
     Generated using &quot;atomic&quot; code by A. Dal Corso  v.6.3MaX
     Using radial grid of 1095 points,  4 beta functions with: 
                l(1) =   0
                l(2) =   0
                l(3) =   1
                l(4) =   1
     Q(r) pseudized with 0 coefficients 


     atomic species   valence    mass     pseudopotential
     Ni1              10.00    58.69340     Ni( 1.00)
     Ni2              10.00    58.69340     Ni( 1.00)
     O                 6.00    15.99900     O ( 1.00)

     Starting magnetic structure 
     atomic species   magnetization
     Ni1             0.150
     Ni2             0.150
     O               0.000

     No symmetry found



   Cartesian axes

     site n.     atom                  positions (alat units)
         1        Ni1    tau(   1) = (   0.0000000   0.0000000   0.0000000  )
         2        Ni2    tau(   2) = (  -0.5000000   1.5000000  -0.5000000  )
         3        O      tau(   3) = (   0.7500000  -0.2500000  -0.2500000  )
         4        O      tau(   4) = (  -0.7500000   0.2500000   0.2500000  )

     number of k points=   112

     Number of k-points >= 100: set verbosity='high' to print them.

     Dense  grid:    53137 G-vectors     FFT dimensions: (  75,  75,  75)

     Smooth grid:    13489 G-vectors     FFT dimensions: (  45,  45,  45)

     Estimated max dynamical RAM per process >      91.65 MB

     Estimated total dynamical RAM >     458.26 MB
     Generating pointlists ...
     new r_m :   0.1535 (alat units)  1.4807 (a.u.) for type    1
     new r_m :   0.0881 (alat units)  0.8499 (a.u.) for type    2
     new r_m :   0.0881 (alat units)  0.8499 (a.u.) for type    3

     Initial potential from superposition of free atoms

     starting charge      31.9995, renormalised to      32.0000

     STARTING HUBBARD OCCUPATIONS:

     =================== HUBBARD OCCUPATIONS ===================
     ------------------------ ATOM    1 ------------------------
     Tr[ns(  1)] (up, down, total) =   5.00000  3.00000  8.00000
     Atomic magnetic moment for atom   1 =   2.00000
     SPIN  1
     eigenvalues:
       1.000  1.000  1.000  1.000  1.000
     eigenvectors (columns):
       1.000  0.000  0.000  0.000  0.000
       0.000  1.000  0.000  0.000  0.000
       0.000  0.000  1.000  0.000  0.000
       0.000  0.000  0.000  1.000  0.000
       0.000  0.000  0.000  0.000  1.000
     occupation matrix ns (before diag.):
       1.000  0.000  0.000  0.000  0.000
       0.000  1.000  0.000  0.000  0.000
       0.000  0.000  1.000  0.000  0.000
       0.000  0.000  0.000  1.000  0.000
       0.000  0.000  0.000  0.000  1.000
     SPIN  2
     eigenvalues:
       0.600  0.600  0.600  0.600  0.600
     eigenvectors (columns):
       1.000  0.000  0.000  0.000  0.000
       0.000  1.000  0.000  0.000  0.000
       0.000  0.000  1.000  0.000  0.000
       0.000  0.000  0.000  1.000  0.000
       0.000  0.000  0.000  0.000  1.000
     occupation matrix ns (before diag.):
       0.600  0.000  0.000  0.000  0.000
       0.000  0.600  0.000  0.000  0.000
       0.000  0.000  0.600  0.000  0.000
       0.000  0.000  0.000  0.600  0.000
       0.000  0.000  0.000  0.000  0.600
     ------------------------ ATOM    2 ------------------------
     Tr[ns(  2)] (up, down, total) =   5.00000  3.00000  8.00000
     Atomic magnetic moment for atom   2 =   2.00000
     SPIN  1
     eigenvalues:
       1.000  1.000  1.000  1.000  1.000
     eigenvectors (columns):
       1.000  0.000  0.000  0.000  0.000
       0.000  1.000  0.000  0.000  0.000
       0.000  0.000  1.000  0.000  0.000
       0.000  0.000  0.000  1.000  0.000
       0.000  0.000  0.000  0.000  1.000
     occupation matrix ns (before diag.):
       1.000  0.000  0.000  0.000  0.000
       0.000  1.000  0.000  0.000  0.000
       0.000  0.000  1.000  0.000  0.000
       0.000  0.000  0.000  1.000  0.000
       0.000  0.000  0.000  0.000  1.000
     SPIN  2
     eigenvalues:
       0.600  0.600  0.600  0.600  0.600
     eigenvectors (columns):
       1.000  0.000  0.000  0.000  0.000
       0.000  1.000  0.000  0.000  0.000
       0.000  0.000  1.000  0.000  0.000
       0.000  0.000  0.000  1.000  0.000
       0.000  0.000  0.000  0.000  1.000
     occupation matrix ns (before diag.):
       0.600  0.000  0.000  0.000  0.000
       0.000  0.600  0.000  0.000  0.000
       0.000  0.000  0.600  0.000  0.000
       0.000  0.000  0.000  0.600  0.000
       0.000  0.000  0.000  0.000  0.600

     Number of occupied Hubbard levels =   16.0000

     Atomic wfc used for Hubbard projectors are orthogonalized

     Starting wfcs are   26 randomized atomic wfcs

     total cpu time spent up to now is        3.1 secs

     Self-consistent Calculation

     iteration #  1     ecut=    55.00 Ry     beta= 0.20
     Davidson diagonalization with overlap
     ethr =  1.00E-02,  avg # of iterations =  3.7

     =================== HUBBARD OCCUPATIONS ===================
     ------------------------ ATOM    1 ------------------------
     Tr[ns(  1)] (up, down, total) =   4.83277  4.66938  9.50214
     Atomic magnetic moment for atom   1 =   0.16339
     SPIN  1
     eigenvalues:
       0.904  0.971  0.981  0.985  0.992
     eigenvectors (columns):
      -0.057 -0.363 -0.632 -0.679  0.065
       0.521  0.144  0.021 -0.217 -0.813
      -0.834 -0.029 -0.004  0.036 -0.549
       0.168 -0.558 -0.430  0.666 -0.180
       0.035 -0.732  0.644 -0.215 -0.033
     occupation matrix ns (before diag.):
       0.981  0.003 -0.004 -0.003 -0.002
       0.003  0.967  0.038 -0.005  0.000
      -0.004  0.038  0.931  0.012  0.002
      -0.003 -0.005  0.012  0.978 -0.005
      -0.002  0.000  0.002 -0.005  0.976
     SPIN  2
     eigenvalues:
       0.814  0.940  0.962  0.968  0.985
     eigenvectors (columns):
       0.038  0.437 -0.615  0.655 -0.003
      -0.516 -0.157 -0.002  0.136  0.831
       0.836  0.044 -0.012 -0.086  0.541
      -0.179  0.563 -0.368 -0.710  0.111
      -0.049  0.682  0.698  0.202  0.068
     occupation matrix ns (before diag.):
       0.960  0.005 -0.005 -0.007 -0.005
       0.005  0.938  0.074 -0.010  0.000
      -0.005  0.074  0.865  0.023  0.006
      -0.007 -0.010  0.023  0.954 -0.010
      -0.005  0.000  0.006 -0.010  0.952
     ------------------------ ATOM    2 ------------------------
     Tr[ns(  2)] (up, down, total) =   4.20781  3.94050  8.14831
     Atomic magnetic moment for atom   2 =   0.26731
     SPIN  1
     eigenvalues:
       0.613  0.705  0.903  0.992  0.994
     eigenvectors (columns):
      -0.648 -0.344 -0.654 -0.029  0.180
      -0.208 -0.706  0.511  0.408 -0.175
       0.706 -0.493 -0.344  0.094  0.363
       0.138 -0.334 -0.116 -0.646 -0.663
       0.140  0.172 -0.423  0.637 -0.605
     occupation matrix ns (before diag.):
       0.761 -0.091  0.105 -0.006  0.026
      -0.091  0.810 -0.029 -0.051  0.065
       0.105 -0.029  0.724 -0.088 -0.026
      -0.006 -0.051 -0.088  0.953  0.005
       0.026  0.065 -0.026  0.005  0.961
     SPIN  2
     eigenvalues:
       0.527  0.611  0.827  0.986  0.989
     eigenvectors (columns):
       0.595  0.376  0.687 -0.006 -0.177
       0.184  0.720 -0.494  0.394  0.219
      -0.751  0.439  0.323  0.145 -0.343
      -0.162  0.335  0.098 -0.727  0.569
      -0.144 -0.188  0.412  0.543  0.693
     occupation matrix ns (before diag.):
       0.695 -0.098  0.108 -0.014  0.021
      -0.098  0.737 -0.030 -0.069  0.096
       0.108 -0.030  0.638 -0.117 -0.041
      -0.014 -0.069 -0.117  0.932  0.008
       0.021  0.096 -0.041  0.008  0.938

     Number of occupied Hubbard levels =   17.6505

     total cpu time spent up to now is        7.8 secs

     total energy              =    -262.56016200 Ry
     estimated scf accuracy    <       1.38242783 Ry

     total magnetization       =     0.00 Bohr mag/cell
     absolute magnetization    =     0.88 Bohr mag/cell

     iteration #  2     ecut=    55.00 Ry     beta= 0.20
     Davidson diagonalization with overlap
     ethr =  4.32E-03,  avg # of iterations =  2.4

     total cpu time spent up to now is       12.5 secs

     total energy              =    -262.72349443 Ry
     estimated scf accuracy    <       0.28167763 Ry

     total magnetization       =     0.00 Bohr mag/cell
     absolute magnetization    =     0.71 Bohr mag/cell

     iteration #  3     ecut=    55.00 Ry     beta= 0.20
     Davidson diagonalization with overlap
     c_bands:  1 eigenvalues not converged
     c_bands:  2 eigenvalues not converged
     c_bands:  1 eigenvalues not converged
     ethr =  8.80E-04,  avg # of iterations = 11.7

     total cpu time spent up to now is       22.0 secs

     total energy              =    -263.07152864 Ry
     estimated scf accuracy    <       1.62334238 Ry

     total magnetization       =     0.00 Bohr mag/cell
     absolute magnetization    =     0.53 Bohr mag/cell

     iteration #  4     ecut=    55.00 Ry     beta= 0.20
     Davidson diagonalization with overlap
     ethr =  8.80E-04,  avg # of iterations =  1.4

     total cpu time spent up to now is       26.0 secs

     total energy              =    -262.91342435 Ry
     estimated scf accuracy    <       1.82121099 Ry

     total magnetization       =    -0.00 Bohr mag/cell
     absolute magnetization    =     0.52 Bohr mag/cell

     iteration #  5     ecut=    55.00 Ry     beta= 0.20
     Davidson diagonalization with overlap
     ethr =  8.80E-04,  avg # of iterations =  2.0

     total cpu time spent up to now is       30.2 secs

     total energy              =    -262.68250329 Ry
     estimated scf accuracy    <       1.20007511 Ry

     total magnetization       =     0.00 Bohr mag/cell
     absolute magnetization    =     0.50 Bohr mag/cell

     iteration #  6     ecut=    55.00 Ry     beta= 0.20
     Davidson diagonalization with overlap
     c_bands:  1 eigenvalues not converged
     c_bands:  1 eigenvalues not converged
     c_bands:  1 eigenvalues not converged
     ethr =  8.80E-04,  avg # of iterations = 10.9

     total cpu time spent up to now is       38.7 secs

     total energy              =    -262.94232783 Ry
     estimated scf accuracy    <       0.39452145 Ry

     total magnetization       =     0.00 Bohr mag/cell
     absolute magnetization    =     0.39 Bohr mag/cell

     iteration #  7     ecut=    55.00 Ry     beta= 0.20
     Davidson diagonalization with overlap
     ethr =  8.80E-04,  avg # of iterations =  1.2

     total cpu time spent up to now is       42.6 secs

     total energy              =    -262.81936374 Ry
     estimated scf accuracy    <       0.32814297 Ry

     total magnetization       =     0.00 Bohr mag/cell
     absolute magnetization    =     0.39 Bohr mag/cell

     iteration #  8     ecut=    55.00 Ry     beta= 0.20
     Davidson diagonalization with overlap
     ethr =  8.80E-04,  avg # of iterations =  8.4

     total cpu time spent up to now is       49.2 secs

     total energy              =    -262.96559208 Ry
     estimated scf accuracy    <       0.37893813 Ry

     total magnetization       =     0.00 Bohr mag/cell
     absolute magnetization    =     0.43 Bohr mag/cell

     iteration #  9     ecut=    55.00 Ry     beta= 0.20
     Davidson diagonalization with overlap
     ethr =  8.80E-04,  avg # of iterations =  1.0

     total cpu time spent up to now is       53.1 secs

     total energy              =    -262.94836252 Ry
     estimated scf accuracy    <       0.40017761 Ry

     total magnetization       =     0.00 Bohr mag/cell
     absolute magnetization    =     0.42 Bohr mag/cell

     iteration # 10     ecut=    55.00 Ry     beta= 0.20
     Davidson diagonalization with overlap
     ethr =  8.80E-04,  avg # of iterations =  1.1

     total cpu time spent up to now is       57.0 secs

     total energy              =    -262.84792145 Ry
     estimated scf accuracy    <       0.34579511 Ry

     total magnetization       =    -0.00 Bohr mag/cell
     absolute magnetization    =     0.42 Bohr mag/cell

     iteration # 11     ecut=    55.00 Ry     beta= 0.20
     Davidson diagonalization with overlap
     ethr =  8.80E-04,  avg # of iterations =  6.8

     total cpu time spent up to now is       63.0 secs

     total energy              =    -262.91174544 Ry
     estimated scf accuracy    <       0.19546370 Ry

     total magnetization       =    -0.00 Bohr mag/cell
     absolute magnetization    =     0.41 Bohr mag/cell

     iteration # 12     ecut=    55.00 Ry     beta= 0.20
     Davidson diagonalization with overlap
     ethr =  6.11E-04,  avg # of iterations =  2.8

     total cpu time spent up to now is       67.3 secs

     total energy              =    -262.90972242 Ry
     estimated scf accuracy    <       0.04256460 Ry

     total magnetization       =    -0.00 Bohr mag/cell
     absolute magnetization    =     0.54 Bohr mag/cell

     iteration # 13     ecut=    55.00 Ry     beta= 0.20
     Davidson diagonalization with overlap
     c_bands:  1 eigenvalues not converged
     c_bands:  1 eigenvalues not converged
     c_bands:  1 eigenvalues not converged
     c_bands:  1 eigenvalues not converged
     c_bands:  1 eigenvalues not converged
     c_bands:  1 eigenvalues not converged
     c_bands:  1 eigenvalues not converged
     c_bands:  1 eigenvalues not converged
     c_bands:  1 eigenvalues not converged
     c_bands:  1 eigenvalues not converged
     c_bands:  1 eigenvalues not converged
     c_bands:  1 eigenvalues not converged
     c_bands:  1 eigenvalues not converged
     c_bands:  1 eigenvalues not converged
     c_bands:  1 eigenvalues not converged
     c_bands:  1 eigenvalues not converged
     c_bands:  1 eigenvalues not converged
     ethr =  1.33E-04,  avg # of iterations = 12.2

     total cpu time spent up to now is       75.6 secs

     total energy              =    -262.90977923 Ry
     estimated scf accuracy    <       0.23579018 Ry

     total magnetization       =    -0.00 Bohr mag/cell
     absolute magnetization    =     0.45 Bohr mag/cell

     iteration # 14     ecut=    55.00 Ry     beta= 0.20
     Davidson diagonalization with overlap
     c_bands:  1 eigenvalues not converged
     c_bands:  1 eigenvalues not converged
     c_bands:  1 eigenvalues not converged
     c_bands:  1 eigenvalues not converged
     c_bands:  1 eigenvalues not converged
     c_bands:  1 eigenvalues not converged
     c_bands:  1 eigenvalues not converged
     c_bands:  1 eigenvalues not converged
     c_bands:  1 eigenvalues not converged
     ethr =  1.33E-04,  avg # of iterations = 10.4

     total cpu time spent up to now is       83.6 secs

     total energy              =    -262.91877942 Ry
     estimated scf accuracy    <       0.03928642 Ry

     total magnetization       =     0.00 Bohr mag/cell
     absolute magnetization    =     0.64 Bohr mag/cell

     iteration # 15     ecut=    55.00 Ry     beta= 0.20
     Davidson diagonalization with overlap
     c_bands:  1 eigenvalues not converged
     c_bands:  1 eigenvalues not converged
     c_bands:  2 eigenvalues not converged
     c_bands:  1 eigenvalues not converged
     c_bands:  1 eigenvalues not converged
     c_bands:  1 eigenvalues not converged
     c_bands:  1 eigenvalues not converged
     c_bands:  1 eigenvalues not converged
     c_bands:  1 eigenvalues not converged
     c_bands:  1 eigenvalues not converged
     c_bands:  1 eigenvalues not converged
     c_bands:  1 eigenvalues not converged
     c_bands:  2 eigenvalues not converged
     c_bands:  1 eigenvalues not converged
     c_bands:  1 eigenvalues not converged
     c_bands:  4 eigenvalues not converged
     c_bands:  1 eigenvalues not converged
     c_bands:  1 eigenvalues not converged
     c_bands:  1 eigenvalues not converged
     c_bands:  3 eigenvalues not converged
     c_bands:  1 eigenvalues not converged
     c_bands:  1 eigenvalues not converged
     c_bands:  1 eigenvalues not converged
     c_bands:  1 eigenvalues not converged
     c_bands:  1 eigenvalues not converged
     c_bands:  1 eigenvalues not converged
     c_bands:  1 eigenvalues not converged
     c_bands:  1 eigenvalues not converged
     c_bands:  2 eigenvalues not converged
     c_bands:  1 eigenvalues not converged
     c_bands:  1 eigenvalues not converged
     c_bands:  1 eigenvalues not converged
     c_bands:  2 eigenvalues not converged
     c_bands:  5 eigenvalues not converged
     c_bands:  1 eigenvalues not converged
     c_bands:  3 eigenvalues not converged
     c_bands:  1 eigenvalues not converged
     c_bands:  2 eigenvalues not converged
     c_bands:  2 eigenvalues not converged
     c_bands:  1 eigenvalues not converged
     c_bands:  2 eigenvalues not converged
     ethr =  1.23E-04,  avg # of iterations = 14.6

     total cpu time spent up to now is       96.1 secs

     total energy              =    -263.03392687 Ry
     estimated scf accuracy    <       1.06001820 Ry

     total magnetization       =     0.00 Bohr mag/cell
     absolute magnetization    =     0.27 Bohr mag/cell

     iteration # 16     ecut=    55.00 Ry     beta= 0.20
     Davidson diagonalization with overlap
     ethr =  1.23E-04,  avg # of iterations =  1.7

     total cpu time spent up to now is      100.1 secs

     total energy              =    -263.02790400 Ry
     estimated scf accuracy    <       1.06029249 Ry

     total magnetization       =    -0.00 Bohr mag/cell
     absolute magnetization    =     0.27 Bohr mag/cell

     iteration # 17     ecut=    55.00 Ry     beta= 0.20
     Davidson diagonalization with overlap
     ethr =  1.23E-04,  avg # of iterations =  1.2

     total cpu time spent up to now is      104.0 secs

     total energy              =    -262.98154638 Ry
     estimated scf accuracy    <       1.03786868 Ry

     total magnetization       =    -0.00 Bohr mag/cell
     absolute magnetization    =     0.27 Bohr mag/cell

     iteration # 18     ecut=    55.00 Ry     beta= 0.20
     Davidson diagonalization with overlap
     ethr =  1.23E-04,  avg # of iterations =  1.9

     total cpu time spent up to now is      108.2 secs

     total energy              =    -262.92814379 Ry
     estimated scf accuracy    <       0.90637859 Ry

     total magnetization       =     0.00 Bohr mag/cell
     absolute magnetization    =     0.25 Bohr mag/cell

     iteration # 19     ecut=    55.00 Ry     beta= 0.20
     Davidson diagonalization with overlap
     ethr =  1.23E-04,  avg # of iterations =  6.0

     total cpu time spent up to now is      114.2 secs

     total energy              =    -262.94920998 Ry
     estimated scf accuracy    <       0.43267161 Ry

     total magnetization       =    -0.00 Bohr mag/cell
     absolute magnetization    =     0.25 Bohr mag/cell

     iteration # 20     ecut=    55.00 Ry     beta= 0.20
     Davidson diagonalization with overlap
     ethr =  1.23E-04,  avg # of iterations =  2.1

     total cpu time spent up to now is      118.5 secs

     total energy              =    -262.92906529 Ry
     estimated scf accuracy    <       0.35367738 Ry

     total magnetization       =     0.00 Bohr mag/cell
     absolute magnetization    =     0.29 Bohr mag/cell

     iteration # 21     ecut=    55.00 Ry     beta= 0.20
     Davidson diagonalization with overlap
     ethr =  1.23E-04,  avg # of iterations =  3.0

     total cpu time spent up to now is      123.1 secs

     total energy              =    -262.94160393 Ry
     estimated scf accuracy    <       0.22651072 Ry

     total magnetization       =    -0.00 Bohr mag/cell
     absolute magnetization    =     0.33 Bohr mag/cell

     iteration # 22     ecut=    55.00 Ry     beta= 0.20
     Davidson diagonalization with overlap
     ethr =  1.23E-04,  avg # of iterations =  6.6

     total cpu time spent up to now is      129.1 secs

     total energy              =    -262.94758165 Ry
     estimated scf accuracy    <       0.09639924 Ry

     total magnetization       =     0.00 Bohr mag/cell
     absolute magnetization    =     0.65 Bohr mag/cell

     iteration # 23     ecut=    55.00 Ry     beta= 0.20
     Davidson diagonalization with overlap
     c_bands:  1 eigenvalues not converged
     ethr =  1.23E-04,  avg # of iterations =  3.0

     total cpu time spent up to now is      133.6 secs

     total energy              =    -262.94729478 Ry
     estimated scf accuracy    <       0.03993971 Ry

     total magnetization       =     0.00 Bohr mag/cell
     absolute magnetization    =     0.73 Bohr mag/cell

     iteration # 24     ecut=    55.00 Ry     beta= 0.20
     Davidson diagonalization with overlap
     c_bands:  1 eigenvalues not converged
     c_bands:  1 eigenvalues not converged
     ethr =  1.23E-04,  avg # of iterations =  5.6

     total cpu time spent up to now is      139.1 secs

     total energy              =    -262.95938081 Ry
     estimated scf accuracy    <       0.01011825 Ry

     total magnetization       =     0.00 Bohr mag/cell
     absolute magnetization    =     0.93 Bohr mag/cell

     iteration # 25     ecut=    55.00 Ry     beta= 0.20
     Davidson diagonalization with overlap
     c_bands:  1 eigenvalues not converged
     c_bands:  1 eigenvalues not converged
     c_bands:  1 eigenvalues not converged
     c_bands:  1 eigenvalues not converged
     c_bands:  1 eigenvalues not converged
     c_bands:  1 eigenvalues not converged
     c_bands:  1 eigenvalues not converged
     c_bands:  1 eigenvalues not converged
     ethr =  3.16E-05,  avg # of iterations =  9.0

     total cpu time spent up to now is      146.2 secs

     total energy              =    -262.96944952 Ry
     estimated scf accuracy    <       0.05118630 Ry

     total magnetization       =    -0.00 Bohr mag/cell
     absolute magnetization    =     0.96 Bohr mag/cell

     iteration # 26     ecut=    55.00 Ry     beta= 0.20
     Davidson diagonalization with overlap
     ethr =  3.16E-05,  avg # of iterations =  2.4

     total cpu time spent up to now is      150.4 secs

     total energy              =    -262.96508793 Ry
     estimated scf accuracy    <       0.06703940 Ry

     total magnetization       =     0.00 Bohr mag/cell
     absolute magnetization    =     0.98 Bohr mag/cell

     iteration # 27     ecut=    55.00 Ry     beta= 0.20
     Davidson diagonalization with overlap
     ethr =  3.16E-05,  avg # of iterations =  1.7

     total cpu time spent up to now is      154.5 secs

     total energy              =    -262.97233949 Ry
     estimated scf accuracy    <       0.05865670 Ry

     total magnetization       =    -0.00 Bohr mag/cell
     absolute magnetization    =     0.97 Bohr mag/cell

     iteration # 28     ecut=    55.00 Ry     beta= 0.20
     Davidson diagonalization with overlap
     ethr =  3.16E-05,  avg # of iterations =  2.5

     total cpu time spent up to now is      158.8 secs

     total energy              =    -262.97523354 Ry
     estimated scf accuracy    <       0.07600725 Ry

     total magnetization       =    -0.00 Bohr mag/cell
     absolute magnetization    =     1.00 Bohr mag/cell

     iteration # 29     ecut=    55.00 Ry     beta= 0.20
     Davidson diagonalization with overlap
     c_bands:  1 eigenvalues not converged
     c_bands:  1 eigenvalues not converged
     ethr =  3.16E-05,  avg # of iterations =  6.8

     total cpu time spent up to now is      164.9 secs

     total energy              =    -262.98125994 Ry
     estimated scf accuracy    <       0.09766155 Ry

     total magnetization       =     0.00 Bohr mag/cell
     absolute magnetization    =     1.13 Bohr mag/cell

     iteration # 30     ecut=    55.00 Ry     beta= 0.20
     Davidson diagonalization with overlap
     ethr =  3.16E-05,  avg # of iterations =  1.4

     total cpu time spent up to now is      168.9 secs

     total energy              =    -262.98175463 Ry
     estimated scf accuracy    <       0.10662168 Ry

     total magnetization       =    -0.00 Bohr mag/cell
     absolute magnetization    =     1.13 Bohr mag/cell

     iteration # 31     ecut=    55.00 Ry     beta= 0.20
     Davidson diagonalization with overlap
     ethr =  3.16E-05,  avg # of iterations =  1.1

     total cpu time spent up to now is      172.8 secs

     total energy              =    -262.97920855 Ry
     estimated scf accuracy    <       0.10769012 Ry

     total magnetization       =     0.00 Bohr mag/cell
     absolute magnetization    =     1.14 Bohr mag/cell

     iteration # 32     ecut=    55.00 Ry     beta= 0.20
     Davidson diagonalization with overlap
     ethr =  3.16E-05,  avg # of iterations =  1.4

     total cpu time spent up to now is      176.8 secs

     total energy              =    -262.98717223 Ry
     estimated scf accuracy    <       0.10154475 Ry

     total magnetization       =    -0.00 Bohr mag/cell
     absolute magnetization    =     1.14 Bohr mag/cell

     iteration # 33     ecut=    55.00 Ry     beta= 0.20
     Davidson diagonalization with overlap
     ethr =  3.16E-05,  avg # of iterations =  2.3

     total cpu time spent up to now is      181.2 secs

     total energy              =    -262.96241537 Ry
     estimated scf accuracy    <       0.14330396 Ry

     total magnetization       =    -0.00 Bohr mag/cell
     absolute magnetization    =     1.15 Bohr mag/cell

     iteration # 34     ecut=    55.00 Ry     beta= 0.20
     Davidson diagonalization with overlap
     c_bands:  1 eigenvalues not converged
     ethr =  3.16E-05,  avg # of iterations =  8.8

     total cpu time spent up to now is      188.8 secs

     total energy              =    -262.97298454 Ry
     estimated scf accuracy    <       0.02222726 Ry

     total magnetization       =     0.00 Bohr mag/cell
     absolute magnetization    =     1.20 Bohr mag/cell

     iteration # 35     ecut=    55.00 Ry     beta= 0.20
     Davidson diagonalization with overlap
     c_bands:  1 eigenvalues not converged
     ethr =  3.16E-05,  avg # of iterations =  5.3

     total cpu time spent up to now is      194.4 secs

     total energy              =    -262.97609927 Ry
     estimated scf accuracy    <       0.00954672 Ry

     total magnetization       =    -0.00 Bohr mag/cell
     absolute magnetization    =     1.24 Bohr mag/cell

     iteration # 36     ecut=    55.00 Ry     beta= 0.20
     Davidson diagonalization with overlap
     ethr =  2.98E-05,  avg # of iterations =  2.7

     total cpu time spent up to now is      199.0 secs

     total energy              =    -262.97749119 Ry
     estimated scf accuracy    <       0.00773890 Ry

     total magnetization       =    -0.00 Bohr mag/cell
     absolute magnetization    =     1.25 Bohr mag/cell

     iteration # 37     ecut=    55.00 Ry     beta= 0.20
     Davidson diagonalization with overlap
     ethr =  2.42E-05,  avg # of iterations =  4.7

     total cpu time spent up to now is      204.3 secs

     total energy              =    -262.98038668 Ry
     estimated scf accuracy    <       0.01407322 Ry

     total magnetization       =     0.00 Bohr mag/cell
     absolute magnetization    =     1.25 Bohr mag/cell

     iteration # 38     ecut=    55.00 Ry     beta= 0.20
     Davidson diagonalization with overlap
     ethr =  2.42E-05,  avg # of iterations =  2.2

     total cpu time spent up to now is      208.6 secs

     total energy              =    -262.98093000 Ry
     estimated scf accuracy    <       0.01891549 Ry

     total magnetization       =    -0.00 Bohr mag/cell
     absolute magnetization    =     1.25 Bohr mag/cell

     iteration # 39     ecut=    55.00 Ry     beta= 0.20
     Davidson diagonalization with overlap
     ethr =  2.42E-05,  avg # of iterations =  1.6

     total cpu time spent up to now is      212.7 secs

     total energy              =    -262.97735566 Ry
     estimated scf accuracy    <       0.02029717 Ry

     total magnetization       =    -0.00 Bohr mag/cell
     absolute magnetization    =     1.25 Bohr mag/cell

     iteration # 40     ecut=    55.00 Ry     beta= 0.20
     Davidson diagonalization with overlap
     ethr =  2.42E-05,  avg # of iterations =  4.8

     total cpu time spent up to now is      217.9 secs

     total energy              =    -262.98062161 Ry
     estimated scf accuracy    <       0.00495574 Ry

     total magnetization       =    -0.00 Bohr mag/cell
     absolute magnetization    =     1.32 Bohr mag/cell

     iteration # 41     ecut=    55.00 Ry     beta= 0.20
     Davidson diagonalization with overlap
     c_bands:  1 eigenvalues not converged
     c_bands:  1 eigenvalues not converged
     ethr =  1.55E-05,  avg # of iterations =  2.5

     total cpu time spent up to now is      222.2 secs

     total energy              =    -262.98185104 Ry
     estimated scf accuracy    <       0.00635384 Ry

     total magnetization       =     0.00 Bohr mag/cell
     absolute magnetization    =     1.34 Bohr mag/cell

     iteration # 42     ecut=    55.00 Ry     beta= 0.20
     Davidson diagonalization with overlap
     c_bands:  1 eigenvalues not converged
     ethr =  1.55E-05,  avg # of iterations =  5.7

     total cpu time spent up to now is      227.6 secs

     total energy              =    -262.98282134 Ry
     estimated scf accuracy    <       0.00438470 Ry

     total magnetization       =    -0.00 Bohr mag/cell
     absolute magnetization    =     1.40 Bohr mag/cell

     iteration # 43     ecut=    55.00 Ry     beta= 0.20
     Davidson diagonalization with overlap
     c_bands:  1 eigenvalues not converged
     c_bands:  1 eigenvalues not converged
     c_bands:  1 eigenvalues not converged
     c_bands:  1 eigenvalues not converged
     c_bands:  1 eigenvalues not converged
     c_bands:  1 eigenvalues not converged
     c_bands:  1 eigenvalues not converged
     c_bands:  1 eigenvalues not converged
     c_bands:  1 eigenvalues not converged
     c_bands:  1 eigenvalues not converged
     ethr =  1.37E-05,  avg # of iterations = 10.1

     total cpu time spent up to now is      234.6 secs

     total energy              =    -262.98640741 Ry
     estimated scf accuracy    <       0.00208137 Ry

     total magnetization       =    -0.00 Bohr mag/cell
     absolute magnetization    =     1.54 Bohr mag/cell

     iteration # 44     ecut=    55.00 Ry     beta= 0.20
     Davidson diagonalization with overlap
     c_bands:  1 eigenvalues not converged
     ethr =  6.50E-06,  avg # of iterations =  5.9

     total cpu time spent up to now is      240.2 secs

     total energy              =    -262.98717635 Ry
     estimated scf accuracy    <       0.00316448 Ry

     total magnetization       =     0.00 Bohr mag/cell
     absolute magnetization    =     1.57 Bohr mag/cell

     iteration # 45     ecut=    55.00 Ry     beta= 0.20
     Davidson diagonalization with overlap
     ethr =  6.50E-06,  avg # of iterations =  2.2

     total cpu time spent up to now is      244.5 secs

     total energy              =    -262.98737136 Ry
     estimated scf accuracy    <       0.00342591 Ry

     total magnetization       =     0.00 Bohr mag/cell
     absolute magnetization    =     1.57 Bohr mag/cell

     iteration # 46     ecut=    55.00 Ry     beta= 0.20
     Davidson diagonalization with overlap
     c_bands:  1 eigenvalues not converged
     c_bands:  1 eigenvalues not converged
     c_bands:  1 eigenvalues not converged
     c_bands:  1 eigenvalues not converged
     c_bands:  1 eigenvalues not converged
     ethr =  6.50E-06,  avg # of iterations =  8.6

     total cpu time spent up to now is      250.7 secs

     total energy              =    -262.98691839 Ry
     estimated scf accuracy    <       0.00473457 Ry

     total magnetization       =    -0.00 Bohr mag/cell
     absolute magnetization    =     1.62 Bohr mag/cell

     iteration # 47     ecut=    55.00 Ry     beta= 0.20
     Davidson diagonalization with overlap
     c_bands:  1 eigenvalues not converged
     c_bands:  1 eigenvalues not converged
     c_bands:  1 eigenvalues not converged
     c_bands:  1 eigenvalues not converged
     c_bands:  1 eigenvalues not converged
     c_bands:  1 eigenvalues not converged
     c_bands:  1 eigenvalues not converged
     ethr =  6.50E-06,  avg # of iterations =  9.8

     total cpu time spent up to now is      258.5 secs

     total energy              =    -262.98826760 Ry
     estimated scf accuracy    <       0.00230190 Ry

     total magnetization       =    -0.00 Bohr mag/cell
     absolute magnetization    =     1.66 Bohr mag/cell

     iteration # 48     ecut=    55.00 Ry     beta= 0.20
     Davidson diagonalization with overlap
     c_bands:  1 eigenvalues not converged
     ethr =  6.50E-06,  avg # of iterations =  2.6

     total cpu time spent up to now is      262.9 secs

     total energy              =    -262.98742872 Ry
     estimated scf accuracy    <       0.00121027 Ry

     total magnetization       =    -0.00 Bohr mag/cell
     absolute magnetization    =     1.66 Bohr mag/cell

     iteration # 49     ecut=    55.00 Ry     beta= 0.20
     Davidson diagonalization with overlap
     c_bands:  1 eigenvalues not converged
     c_bands:  1 eigenvalues not converged
     c_bands:  1 eigenvalues not converged
     ethr =  3.78E-06,  avg # of iterations =  6.5

     total cpu time spent up to now is      269.3 secs

     total energy              =    -262.98753957 Ry
     estimated scf accuracy    <       0.00072751 Ry

     total magnetization       =    -0.00 Bohr mag/cell
     absolute magnetization    =     1.64 Bohr mag/cell

     iteration # 50     ecut=    55.00 Ry     beta= 0.20
     Davidson diagonalization with overlap
     c_bands:  1 eigenvalues not converged
     c_bands:  1 eigenvalues not converged
     ethr =  2.27E-06,  avg # of iterations =  6.3

     total cpu time spent up to now is      275.3 secs

     total energy              =    -262.98797160 Ry
     estimated scf accuracy    <       0.00204577 Ry

     total magnetization       =    -0.00 Bohr mag/cell
     absolute magnetization    =     1.62 Bohr mag/cell

     iteration # 51     ecut=    55.00 Ry     beta= 0.20
     Davidson diagonalization with overlap
     ethr =  2.27E-06,  avg # of iterations =  1.3

     total cpu time spent up to now is      279.3 secs

     total energy              =    -262.98830892 Ry
     estimated scf accuracy    <       0.00206178 Ry

     total magnetization       =     0.00 Bohr mag/cell
     absolute magnetization    =     1.62 Bohr mag/cell

     iteration # 52     ecut=    55.00 Ry     beta= 0.20
     Davidson diagonalization with overlap
     ethr =  2.27E-06,  avg # of iterations =  3.7

     total cpu time spent up to now is      283.9 secs

     total energy              =    -262.98837842 Ry
     estimated scf accuracy    <       0.00132946 Ry

     total magnetization       =     0.00 Bohr mag/cell
     absolute magnetization    =     1.63 Bohr mag/cell

     iteration # 53     ecut=    55.00 Ry     beta= 0.20
     Davidson diagonalization with overlap
     ethr =  2.27E-06,  avg # of iterations =  1.5

     total cpu time spent up to now is      288.0 secs

     total energy              =    -262.98818855 Ry
     estimated scf accuracy    <       0.00097255 Ry

     total magnetization       =     0.00 Bohr mag/cell
     absolute magnetization    =     1.64 Bohr mag/cell

     iteration # 54     ecut=    55.00 Ry     beta= 0.20
     Davidson diagonalization with overlap
     c_bands:  1 eigenvalues not converged
     c_bands:  1 eigenvalues not converged
     c_bands:  1 eigenvalues not converged
     ethr =  2.27E-06,  avg # of iterations =  8.7

     total cpu time spent up to now is      294.5 secs

     total energy              =    -262.98870525 Ry
     estimated scf accuracy    <       0.00032267 Ry

     total magnetization       =     0.00 Bohr mag/cell
     absolute magnetization    =     1.65 Bohr mag/cell

     iteration # 55     ecut=    55.00 Ry     beta= 0.20
     Davidson diagonalization with overlap
     c_bands:  1 eigenvalues not converged
     c_bands:  1 eigenvalues not converged
     c_bands:  1 eigenvalues not converged
     c_bands:  1 eigenvalues not converged
     c_bands:  1 eigenvalues not converged
     c_bands:  1 eigenvalues not converged
     c_bands:  1 eigenvalues not converged
     c_bands:  1 eigenvalues not converged
     c_bands:  1 eigenvalues not converged
     c_bands:  1 eigenvalues not converged
     c_bands:  1 eigenvalues not converged
     ethr =  1.01E-06,  avg # of iterations =  9.1

     total cpu time spent up to now is      301.7 secs

     total energy              =    -262.98875905 Ry
     estimated scf accuracy    <       0.00149495 Ry

     total magnetization       =    -0.00 Bohr mag/cell
     absolute magnetization    =     1.66 Bohr mag/cell

     iteration # 56     ecut=    55.00 Ry     beta= 0.20
     Davidson diagonalization with overlap
     ethr =  1.01E-06,  avg # of iterations =  1.2

     total cpu time spent up to now is      305.7 secs

     total energy              =    -262.98885130 Ry
     estimated scf accuracy    <       0.00138111 Ry

     total magnetization       =    -0.00 Bohr mag/cell
     absolute magnetization    =     1.66 Bohr mag/cell

     iteration # 57     ecut=    55.00 Ry     beta= 0.20
     Davidson diagonalization with overlap
     ethr =  1.01E-06,  avg # of iterations =  1.5

     total cpu time spent up to now is      309.7 secs

     total energy              =    -262.98908094 Ry
     estimated scf accuracy    <       0.00168089 Ry

     total magnetization       =     0.00 Bohr mag/cell
     absolute magnetization    =     1.66 Bohr mag/cell

     iteration # 58     ecut=    55.00 Ry     beta= 0.20
     Davidson diagonalization with overlap
     ethr =  1.01E-06,  avg # of iterations =  2.2

     total cpu time spent up to now is      314.0 secs

     total energy              =    -262.98926697 Ry
     estimated scf accuracy    <       0.00218238 Ry

     total magnetization       =    -0.00 Bohr mag/cell
     absolute magnetization    =     1.67 Bohr mag/cell

     iteration # 59     ecut=    55.00 Ry     beta= 0.20
     Davidson diagonalization with overlap
     ethr =  1.01E-06,  avg # of iterations =  3.9

     total cpu time spent up to now is      318.8 secs

     total energy              =    -262.98914828 Ry
     estimated scf accuracy    <       0.00344335 Ry

     total magnetization       =    -0.00 Bohr mag/cell
     absolute magnetization    =     1.67 Bohr mag/cell

     iteration # 60     ecut=    55.00 Ry     beta= 0.20
     Davidson diagonalization with overlap
     ethr =  1.01E-06,  avg # of iterations =  1.2

     total cpu time spent up to now is      322.8 secs

     total energy              =    -262.98950096 Ry
     estimated scf accuracy    <       0.00337151 Ry

     total magnetization       =     0.00 Bohr mag/cell
     absolute magnetization    =     1.67 Bohr mag/cell

     iteration # 61     ecut=    55.00 Ry     beta= 0.20
     Davidson diagonalization with overlap
     ethr =  1.01E-06,  avg # of iterations =  4.0

     total cpu time spent up to now is      327.7 secs

     total energy              =    -262.98892226 Ry
     estimated scf accuracy    <       0.00498724 Ry

     total magnetization       =     0.00 Bohr mag/cell
     absolute magnetization    =     1.67 Bohr mag/cell

     iteration # 62     ecut=    55.00 Ry     beta= 0.20
     Davidson diagonalization with overlap
     ethr =  1.01E-06,  avg # of iterations =  2.9

     total cpu time spent up to now is      332.6 secs

     total energy              =    -262.98889542 Ry
     estimated scf accuracy    <       0.00331134 Ry

     total magnetization       =     0.00 Bohr mag/cell
     absolute magnetization    =     1.67 Bohr mag/cell

     iteration # 63     ecut=    55.00 Ry     beta= 0.20
     Davidson diagonalization with overlap
     ethr =  1.01E-06,  avg # of iterations =  2.6

     total cpu time spent up to now is      337.0 secs

     total energy              =    -262.98859049 Ry
     estimated scf accuracy    <       0.00250657 Ry

     total magnetization       =    -0.00 Bohr mag/cell
     absolute magnetization    =     1.67 Bohr mag/cell

     iteration # 64     ecut=    55.00 Ry     beta= 0.20
     Davidson diagonalization with overlap
     c_bands:  1 eigenvalues not converged
     c_bands:  1 eigenvalues not converged
     c_bands:  1 eigenvalues not converged
     c_bands:  1 eigenvalues not converged
     c_bands:  1 eigenvalues not converged
     c_bands:  1 eigenvalues not converged
     c_bands:  1 eigenvalues not converged
     ethr =  1.01E-06,  avg # of iterations = 10.7

     total cpu time spent up to now is      345.6 secs

     total energy              =    -262.98891922 Ry
     estimated scf accuracy    <       0.00022906 Ry

     total magnetization       =     0.00 Bohr mag/cell
     absolute magnetization    =     1.68 Bohr mag/cell

     iteration # 65     ecut=    55.00 Ry     beta= 0.20
     Davidson diagonalization with overlap
     c_bands:  1 eigenvalues not converged
     c_bands:  1 eigenvalues not converged
     c_bands:  1 eigenvalues not converged
     c_bands:  1 eigenvalues not converged
     c_bands:  1 eigenvalues not converged
     c_bands:  1 eigenvalues not converged
     c_bands:  1 eigenvalues not converged
     c_bands:  1 eigenvalues not converged
     c_bands:  2 eigenvalues not converged
     c_bands:  1 eigenvalues not converged
     c_bands:  1 eigenvalues not converged
     c_bands:  1 eigenvalues not converged
     c_bands:  1 eigenvalues not converged
     c_bands:  1 eigenvalues not converged
     c_bands:  2 eigenvalues not converged
     c_bands:  1 eigenvalues not converged
     c_bands:  1 eigenvalues not converged
     c_bands:  1 eigenvalues not converged
     c_bands:  1 eigenvalues not converged
     c_bands:  2 eigenvalues not converged
     c_bands:  2 eigenvalues not converged
     c_bands:  1 eigenvalues not converged
     c_bands:  1 eigenvalues not converged
     c_bands:  1 eigenvalues not converged
     c_bands:  2 eigenvalues not converged
     c_bands:  2 eigenvalues not converged
     c_bands:  1 eigenvalues not converged
     c_bands:  2 eigenvalues not converged
     c_bands:  1 eigenvalues not converged
     c_bands:  2 eigenvalues not converged
     c_bands:  2 eigenvalues not converged
     c_bands:  1 eigenvalues not converged
     ethr =  7.16E-07,  avg # of iterations = 13.2

     total cpu time spent up to now is      356.4 secs

     total energy              =    -262.98884578 Ry
     estimated scf accuracy    <       0.00198140 Ry

     total magnetization       =     0.00 Bohr mag/cell
     absolute magnetization    =     1.68 Bohr mag/cell

     iteration # 66     ecut=    55.00 Ry     beta= 0.20
     Davidson diagonalization with overlap
     c_bands:  1 eigenvalues not converged
     ethr =  7.16E-07,  avg # of iterations =  7.7

     total cpu time spent up to now is      363.8 secs

     total energy              =    -262.98890613 Ry
     estimated scf accuracy    <       0.00032257 Ry

     total magnetization       =    -0.00 Bohr mag/cell
     absolute magnetization    =     1.68 Bohr mag/cell

     iteration # 67     ecut=    55.00 Ry     beta= 0.20
     Davidson diagonalization with overlap
     ethr =  7.16E-07,  avg # of iterations =  1.7

     total cpu time spent up to now is      368.0 secs

     total energy              =    -262.98900383 Ry
     estimated scf accuracy    <       0.00039413 Ry

     total magnetization       =    -0.00 Bohr mag/cell
     absolute magnetization    =     1.68 Bohr mag/cell

     iteration # 68     ecut=    55.00 Ry     beta= 0.20
     Davidson diagonalization with overlap
     ethr =  7.16E-07,  avg # of iterations =  1.3

     total cpu time spent up to now is      372.0 secs

     total energy              =    -262.98907940 Ry
     estimated scf accuracy    <       0.00030618 Ry

     total magnetization       =     0.00 Bohr mag/cell
     absolute magnetization    =     1.68 Bohr mag/cell

     iteration # 69     ecut=    55.00 Ry     beta= 0.20
     Davidson diagonalization with overlap
     ethr =  7.16E-07,  avg # of iterations =  1.6

     total cpu time spent up to now is      376.1 secs

     total energy              =    -262.98909027 Ry
     estimated scf accuracy    <       0.00027516 Ry

     total magnetization       =     0.00 Bohr mag/cell
     absolute magnetization    =     1.68 Bohr mag/cell

     iteration # 70     ecut=    55.00 Ry     beta= 0.20
     Davidson diagonalization with overlap
     ethr =  7.16E-07,  avg # of iterations =  1.0

     total cpu time spent up to now is      380.1 secs

     total energy              =    -262.98910764 Ry
     estimated scf accuracy    <       0.00027387 Ry

     total magnetization       =     0.00 Bohr mag/cell
     absolute magnetization    =     1.68 Bohr mag/cell

     iteration # 71     ecut=    55.00 Ry     beta= 0.20
     Davidson diagonalization with overlap
     ethr =  7.16E-07,  avg # of iterations =  1.3

     total cpu time spent up to now is      384.1 secs

     total energy              =    -262.98910768 Ry
     estimated scf accuracy    <       0.00029890 Ry

     total magnetization       =    -0.00 Bohr mag/cell
     absolute magnetization    =     1.68 Bohr mag/cell

     iteration # 72     ecut=    55.00 Ry     beta= 0.20
     Davidson diagonalization with overlap
     ethr =  7.16E-07,  avg # of iterations =  1.4

     total cpu time spent up to now is      388.1 secs

     total energy              =    -262.98910871 Ry
     estimated scf accuracy    <       0.00027447 Ry

     total magnetization       =    -0.00 Bohr mag/cell
     absolute magnetization    =     1.68 Bohr mag/cell

     iteration # 73     ecut=    55.00 Ry     beta= 0.20
     Davidson diagonalization with overlap
     ethr =  7.16E-07,  avg # of iterations =  3.0

     total cpu time spent up to now is      392.4 secs

     total energy              =    -262.98909980 Ry
     estimated scf accuracy    <       0.00014505 Ry

     total magnetization       =     0.00 Bohr mag/cell
     absolute magnetization    =     1.69 Bohr mag/cell

     iteration # 74     ecut=    55.00 Ry     beta= 0.20
     Davidson diagonalization with overlap
     c_bands:  1 eigenvalues not converged
     c_bands:  1 eigenvalues not converged
     c_bands:  1 eigenvalues not converged
     c_bands:  1 eigenvalues not converged
     c_bands:  1 eigenvalues not converged
     c_bands:  1 eigenvalues not converged
     c_bands:  1 eigenvalues not converged
     c_bands:  1 eigenvalues not converged
     c_bands:  1 eigenvalues not converged
     c_bands:  1 eigenvalues not converged
     c_bands:  1 eigenvalues not converged
     c_bands:  1 eigenvalues not converged
     c_bands:  1 eigenvalues not converged
     c_bands:  1 eigenvalues not converged
     c_bands:  1 eigenvalues not converged
     c_bands:  1 eigenvalues not converged
     ethr =  4.53E-07,  avg # of iterations = 13.3

     total cpu time spent up to now is      401.5 secs

     total energy              =    -262.98924626 Ry
     estimated scf accuracy    <       0.00025056 Ry

     total magnetization       =     0.00 Bohr mag/cell
     absolute magnetization    =     1.69 Bohr mag/cell

     iteration # 75     ecut=    55.00 Ry     beta= 0.20
     Davidson diagonalization with overlap
     ethr =  4.53E-07,  avg # of iterations =  1.7

     total cpu time spent up to now is      405.6 secs

     total energy              =    -262.98922325 Ry
     estimated scf accuracy    <       0.00017355 Ry

     total magnetization       =    -0.00 Bohr mag/cell
     absolute magnetization    =     1.70 Bohr mag/cell

     iteration # 76     ecut=    55.00 Ry     beta= 0.20
     Davidson diagonalization with overlap
     c_bands:  1 eigenvalues not converged
     c_bands:  1 eigenvalues not converged
     ethr =  4.53E-07,  avg # of iterations =  5.7

     total cpu time spent up to now is      411.3 secs

     total energy              =    -262.98928455 Ry
     estimated scf accuracy    <       0.00004299 Ry

     total magnetization       =    -0.00 Bohr mag/cell
     absolute magnetization    =     1.70 Bohr mag/cell

     iteration # 77     ecut=    55.00 Ry     beta= 0.20
     Davidson diagonalization with overlap
     c_bands:  1 eigenvalues not converged
     c_bands:  1 eigenvalues not converged
     ethr =  1.34E-07,  avg # of iterations =  7.7

     total cpu time spent up to now is      417.3 secs

     total energy              =    -262.98930088 Ry
     estimated scf accuracy    <       0.00008492 Ry

     total magnetization       =    -0.00 Bohr mag/cell
     absolute magnetization    =     1.70 Bohr mag/cell

     iteration # 78     ecut=    55.00 Ry     beta= 0.20
     Davidson diagonalization with overlap
     ethr =  1.34E-07,  avg # of iterations =  2.7

     total cpu time spent up to now is      422.0 secs

     total energy              =    -262.98926077 Ry
     estimated scf accuracy    <       0.00009839 Ry

     total magnetization       =    -0.00 Bohr mag/cell
     absolute magnetization    =     1.70 Bohr mag/cell

     iteration # 79     ecut=    55.00 Ry     beta= 0.20
     Davidson diagonalization with overlap
     ethr =  1.34E-07,  avg # of iterations =  2.9

     total cpu time spent up to now is      426.6 secs

     total energy              =    -262.98922555 Ry
     estimated scf accuracy    <       0.00014433 Ry

     total magnetization       =     0.00 Bohr mag/cell
     absolute magnetization    =     1.70 Bohr mag/cell

     iteration # 80     ecut=    55.00 Ry     beta= 0.20
     Davidson diagonalization with overlap
     c_bands:  1 eigenvalues not converged
     c_bands:  1 eigenvalues not converged
     ethr =  1.34E-07,  avg # of iterations =  6.6

     total cpu time spent up to now is      433.0 secs

     total energy              =    -262.98929069 Ry
     estimated scf accuracy    <       0.00007003 Ry

     total magnetization       =     0.00 Bohr mag/cell
     absolute magnetization    =     1.70 Bohr mag/cell

     iteration # 81     ecut=    55.00 Ry     beta= 0.20
     Davidson diagonalization with overlap
     c_bands:  1 eigenvalues not converged
     ethr =  1.34E-07,  avg # of iterations =  6.0

     total cpu time spent up to now is      438.8 secs

     total energy              =    -262.98931595 Ry
     estimated scf accuracy    <       0.00002669 Ry

     total magnetization       =    -0.00 Bohr mag/cell
     absolute magnetization    =     1.70 Bohr mag/cell

     iteration # 82     ecut=    55.00 Ry     beta= 0.20
     Davidson diagonalization with overlap
     c_bands:  1 eigenvalues not converged
     c_bands:  1 eigenvalues not converged
     ethr =  8.34E-08,  avg # of iterations =  5.1

     total cpu time spent up to now is      443.9 secs

     total energy              =    -262.98932900 Ry
     estimated scf accuracy    <       0.00001808 Ry

     total magnetization       =     0.00 Bohr mag/cell
     absolute magnetization    =     1.70 Bohr mag/cell

     iteration # 83     ecut=    55.00 Ry     beta= 0.20
     Davidson diagonalization with overlap
     c_bands:  1 eigenvalues not converged
     c_bands:  1 eigenvalues not converged
     c_bands:  1 eigenvalues not converged
     c_bands:  1 eigenvalues not converged
     c_bands:  1 eigenvalues not converged
     c_bands:  2 eigenvalues not converged
     c_bands:  1 eigenvalues not converged
     c_bands:  1 eigenvalues not converged
     c_bands:  1 eigenvalues not converged
     c_bands:  1 eigenvalues not converged
     c_bands:  1 eigenvalues not converged
     c_bands:  1 eigenvalues not converged
     c_bands:  1 eigenvalues not converged
     c_bands:  1 eigenvalues not converged
     c_bands:  1 eigenvalues not converged
     c_bands:  1 eigenvalues not converged
     c_bands:  1 eigenvalues not converged
     c_bands:  1 eigenvalues not converged
     c_bands:  1 eigenvalues not converged
     c_bands:  1 eigenvalues not converged
     c_bands:  1 eigenvalues not converged
     c_bands:  1 eigenvalues not converged
     c_bands:  1 eigenvalues not converged
     c_bands:  1 eigenvalues not converged
     c_bands:  1 eigenvalues not converged
     c_bands:  1 eigenvalues not converged
     c_bands:  1 eigenvalues not converged
     c_bands:  1 eigenvalues not converged
     c_bands:  2 eigenvalues not converged
     c_bands:  1 eigenvalues not converged
     c_bands:  1 eigenvalues not converged
     ethr =  5.65E-08,  avg # of iterations = 13.0

     total cpu time spent up to now is      453.1 secs

     total energy              =    -262.98934220 Ry
     estimated scf accuracy    <       0.00001183 Ry

     total magnetization       =    -0.00 Bohr mag/cell
     absolute magnetization    =     1.70 Bohr mag/cell

     iteration # 84     ecut=    55.00 Ry     beta= 0.20
     Davidson diagonalization with overlap
     ethr =  3.70E-08,  avg # of iterations =  3.4

     total cpu time spent up to now is      457.7 secs

     total energy              =    -262.98935301 Ry
     estimated scf accuracy    <       0.00002599 Ry

     total magnetization       =    -0.00 Bohr mag/cell
     absolute magnetization    =     1.70 Bohr mag/cell

     iteration # 85     ecut=    55.00 Ry     beta= 0.20
     Davidson diagonalization with overlap
     ethr =  3.70E-08,  avg # of iterations =  1.6

     total cpu time spent up to now is      461.8 secs

     total energy              =    -262.98935112 Ry
     estimated scf accuracy    <       0.00001723 Ry

     total magnetization       =    -0.00 Bohr mag/cell
     absolute magnetization    =     1.70 Bohr mag/cell

     iteration # 86     ecut=    55.00 Ry     beta= 0.20
     Davidson diagonalization with overlap
     ethr =  3.70E-08,  avg # of iterations =  1.9

     total cpu time spent up to now is      466.0 secs

     total energy              =    -262.98935309 Ry
     estimated scf accuracy    <       0.00002225 Ry

     total magnetization       =    -0.00 Bohr mag/cell
     absolute magnetization    =     1.70 Bohr mag/cell

     iteration # 87     ecut=    55.00 Ry     beta= 0.20
     Davidson diagonalization with overlap
     ethr =  3.70E-08,  avg # of iterations =  1.0

     total cpu time spent up to now is      470.0 secs

     total energy              =    -262.98935993 Ry
     estimated scf accuracy    <       0.00002097 Ry

     total magnetization       =     0.00 Bohr mag/cell
     absolute magnetization    =     1.70 Bohr mag/cell

     iteration # 88     ecut=    55.00 Ry     beta= 0.20
     Davidson diagonalization with overlap
     c_bands:  1 eigenvalues not converged
     c_bands:  1 eigenvalues not converged
     c_bands:  1 eigenvalues not converged
     c_bands:  1 eigenvalues not converged
     c_bands:  1 eigenvalues not converged
     ethr =  3.70E-08,  avg # of iterations =  6.1

     total cpu time spent up to now is      475.4 secs

     total energy              =    -262.98935972 Ry
     estimated scf accuracy    <       0.00001350 Ry

     total magnetization       =    -0.00 Bohr mag/cell
     absolute magnetization    =     1.71 Bohr mag/cell

     iteration # 89     ecut=    55.00 Ry     beta= 0.20
     Davidson diagonalization with overlap
     c_bands:  1 eigenvalues not converged
     c_bands:  1 eigenvalues not converged
     c_bands:  1 eigenvalues not converged
     c_bands:  1 eigenvalues not converged
     c_bands:  1 eigenvalues not converged
     c_bands:  1 eigenvalues not converged
     c_bands:  1 eigenvalues not converged
     c_bands:  1 eigenvalues not converged
     c_bands:  1 eigenvalues not converged
     c_bands:  1 eigenvalues not converged
     c_bands:  1 eigenvalues not converged
     c_bands:  1 eigenvalues not converged
     c_bands:  1 eigenvalues not converged
     c_bands:  1 eigenvalues not converged
     c_bands:  1 eigenvalues not converged
     c_bands:  1 eigenvalues not converged
     c_bands:  1 eigenvalues not converged
     c_bands:  1 eigenvalues not converged
     c_bands:  1 eigenvalues not converged
     c_bands:  1 eigenvalues not converged
     c_bands:  1 eigenvalues not converged
     c_bands:  1 eigenvalues not converged
     c_bands:  1 eigenvalues not converged
     c_bands:  1 eigenvalues not converged
     c_bands:  1 eigenvalues not converged
     c_bands:  1 eigenvalues not converged
     c_bands:  1 eigenvalues not converged
     ethr =  3.70E-08,  avg # of iterations = 14.8

     total cpu time spent up to now is      486.3 secs

     total energy              =    -262.98938592 Ry
     estimated scf accuracy    <       0.00001216 Ry

     total magnetization       =     0.00 Bohr mag/cell
     absolute magnetization    =     1.71 Bohr mag/cell

     iteration # 90     ecut=    55.00 Ry     beta= 0.20
     Davidson diagonalization with overlap
     ethr =  3.70E-08,  avg # of iterations =  2.0

     total cpu time spent up to now is      490.5 secs

     total energy              =    -262.98937985 Ry
     estimated scf accuracy    <       0.00001015 Ry

     total magnetization       =     0.00 Bohr mag/cell
     absolute magnetization    =     1.71 Bohr mag/cell

     iteration # 91     ecut=    55.00 Ry     beta= 0.20
     Davidson diagonalization with overlap
     ethr =  3.17E-08,  avg # of iterations =  4.7

     total cpu time spent up to now is      495.7 secs

     total energy              =    -262.98937843 Ry
     estimated scf accuracy    <       0.00000600 Ry

     total magnetization       =     0.00 Bohr mag/cell
     absolute magnetization    =     1.71 Bohr mag/cell

     iteration # 92     ecut=    55.00 Ry     beta= 0.20
     Davidson diagonalization with overlap
     c_bands:  1 eigenvalues not converged
     ethr =  1.87E-08,  avg # of iterations =  5.2

     total cpu time spent up to now is      501.2 secs

     total energy              =    -262.98938414 Ry
     estimated scf accuracy    <       0.00001070 Ry

     total magnetization       =     0.00 Bohr mag/cell
     absolute magnetization    =     1.71 Bohr mag/cell

     iteration # 93     ecut=    55.00 Ry     beta= 0.20
     Davidson diagonalization with overlap
     ethr =  1.87E-08,  avg # of iterations =  4.2

     total cpu time spent up to now is      506.5 secs

     total energy              =    -262.98938525 Ry
     estimated scf accuracy    <       0.00001749 Ry

     total magnetization       =     0.00 Bohr mag/cell
     absolute magnetization    =     1.71 Bohr mag/cell

     iteration # 94     ecut=    55.00 Ry     beta= 0.20
     Davidson diagonalization with overlap
     ethr =  1.87E-08,  avg # of iterations =  2.1

     total cpu time spent up to now is      510.9 secs

     total energy              =    -262.98938562 Ry
     estimated scf accuracy    <       0.00001041 Ry

     total magnetization       =     0.00 Bohr mag/cell
     absolute magnetization    =     1.71 Bohr mag/cell

     iteration # 95     ecut=    55.00 Ry     beta= 0.20
     Davidson diagonalization with overlap
     c_bands:  1 eigenvalues not converged
     c_bands:  1 eigenvalues not converged
     c_bands:  1 eigenvalues not converged
     c_bands:  1 eigenvalues not converged
     c_bands:  1 eigenvalues not converged
     c_bands:  1 eigenvalues not converged
     c_bands:  1 eigenvalues not converged
     c_bands:  1 eigenvalues not converged
     ethr =  1.87E-08,  avg # of iterations = 10.0

     total cpu time spent up to now is      518.3 secs

     total energy              =    -262.98939018 Ry
     estimated scf accuracy    <       0.00000480 Ry

     total magnetization       =    -0.00 Bohr mag/cell
     absolute magnetization    =     1.71 Bohr mag/cell

     iteration # 96     ecut=    55.00 Ry     beta= 0.20
     Davidson diagonalization with overlap
     ethr =  1.50E-08,  avg # of iterations =  5.7

     total cpu time spent up to now is      524.1 secs

     total energy              =    -262.98939090 Ry
     estimated scf accuracy    <       0.00000268 Ry

     total magnetization       =    -0.00 Bohr mag/cell
     absolute magnetization    =     1.71 Bohr mag/cell

     iteration # 97     ecut=    55.00 Ry     beta= 0.20
     Davidson diagonalization with overlap
     ethr =  8.37E-09,  avg # of iterations =  1.7

     total cpu time spent up to now is      528.2 secs

     total energy              =    -262.98938944 Ry
     estimated scf accuracy    <       0.00000396 Ry

     total magnetization       =     0.00 Bohr mag/cell
     absolute magnetization    =     1.71 Bohr mag/cell

     iteration # 98     ecut=    55.00 Ry     beta= 0.20
     Davidson diagonalization with overlap
     c_bands:  1 eigenvalues not converged
     c_bands:  1 eigenvalues not converged
     c_bands:  1 eigenvalues not converged
     c_bands:  1 eigenvalues not converged
     c_bands:  1 eigenvalues not converged
     c_bands:  1 eigenvalues not converged
     c_bands:  1 eigenvalues not converged
     c_bands:  1 eigenvalues not converged
     c_bands:  1 eigenvalues not converged
     c_bands:  1 eigenvalues not converged
     c_bands:  1 eigenvalues not converged
     c_bands:  1 eigenvalues not converged
     c_bands:  1 eigenvalues not converged
     c_bands:  1 eigenvalues not converged
     c_bands:  3 eigenvalues not converged
     c_bands:  1 eigenvalues not converged
     c_bands:  2 eigenvalues not converged
     c_bands:  1 eigenvalues not converged
     c_bands:  1 eigenvalues not converged
     c_bands:  1 eigenvalues not converged
     c_bands:  3 eigenvalues not converged
     c_bands:  1 eigenvalues not converged
     c_bands:  1 eigenvalues not converged
     c_bands:  3 eigenvalues not converged
     c_bands:  1 eigenvalues not converged
     ethr =  8.37E-09,  avg # of iterations = 13.3

     total cpu time spent up to now is      540.5 secs

     total energy              =    -262.98939434 Ry
     estimated scf accuracy    <       0.00003916 Ry

     total magnetization       =    -0.00 Bohr mag/cell
     absolute magnetization    =     1.71 Bohr mag/cell

     iteration # 99     ecut=    55.00 Ry     beta= 0.20
     Davidson diagonalization with overlap
     ethr =  8.37E-09,  avg # of iterations =  1.9

     total cpu time spent up to now is      544.6 secs

     total energy              =    -262.98938810 Ry
     estimated scf accuracy    <       0.00003421 Ry

     total magnetization       =     0.00 Bohr mag/cell
     absolute magnetization    =     1.71 Bohr mag/cell

     iteration #100     ecut=    55.00 Ry     beta= 0.20
     Davidson diagonalization with overlap
     c_bands:  1 eigenvalues not converged
     c_bands:  1 eigenvalues not converged
     c_bands:  1 eigenvalues not converged
     c_bands:  1 eigenvalues not converged
     c_bands:  1 eigenvalues not converged
     c_bands:  1 eigenvalues not converged
     c_bands:  1 eigenvalues not converged
     c_bands:  1 eigenvalues not converged
     ethr =  8.37E-09,  avg # of iterations = 11.4

     total cpu time spent up to now is      554.8 secs

     total energy              =    -262.98939194 Ry
     estimated scf accuracy    <       0.00000258 Ry

     total magnetization       =     0.00 Bohr mag/cell
     absolute magnetization    =     1.71 Bohr mag/cell

     End of self-consistent calculation

     convergence NOT achieved after 100 iterations: stopping

     Writing config to output data dir /Users/kirill/Documents/dft/volume/NiO_struct_opt_dft_U/out/NiO.save/ :
     XML data file, charge density

     init_run     :      2.95s CPU      2.98s WALL (       1 calls)
     electrons    :    545.24s CPU    551.67s WALL (       1 calls)

     Called by init_run:
     wfcinit      :      2.58s CPU      2.60s WALL (       1 calls)
     potinit      :      0.07s CPU      0.07s WALL (       1 calls)
     hinit0       :      0.26s CPU      0.26s WALL (       1 calls)

     Called by electrons:
     c_bands      :    457.66s CPU    463.16s WALL (     100 calls)
     sum_band     :     78.24s CPU     79.10s WALL (     100 calls)
     v_of_rho     :      5.16s CPU      5.20s WALL (     101 calls)
     newd         :      3.18s CPU      3.20s WALL (     101 calls)
     mix_rho      :      0.55s CPU      0.55s WALL (     100 calls)

     Called by c_bands:
     init_us_2    :      3.44s CPU      3.47s WALL (   45248 calls)
     cegterg      :    448.16s CPU    453.46s WALL (   22400 calls)

     Called by *egterg:
     cdiaghg      :     22.76s CPU     22.85s WALL (  130559 calls)
     h_psi        :    397.92s CPU    402.18s WALL (  130783 calls)
     s_psi        :      5.39s CPU      5.46s WALL (  131007 calls)
     g_psi        :      0.44s CPU      0.46s WALL (  108159 calls)

     Called by h_psi:
     h_psi:calbec :      9.67s CPU      9.91s WALL (  130783 calls)
     vloc_psi     :    373.21s CPU    376.64s WALL (  130783 calls)
                                        0.00s GPU  (  130783 calls)
     add_vuspsi   :      6.12s CPU      6.21s WALL (  130783 calls)
     vhpsi        :      8.56s CPU      8.88s WALL (  130783 calls)

     General routines
     calbec       :     18.50s CPU     18.96s WALL (  306590 calls)
     fft          :      3.44s CPU      3.46s WALL (    2523 calls)
     ffts         :      0.10s CPU      0.10s WALL (     402 calls)
     fftw         :    417.21s CPU    420.61s WALL ( 2414010 calls)
     interpolate  :      0.31s CPU      0.31s WALL (     202 calls)
     davcio       :      0.00s CPU      0.01s WALL (     242 calls)

     Parallel routines

     Hubbard U routines
     new_ns       :      1.04s CPU      1.08s WALL (     100 calls)
     vhpsi        :      8.56s CPU      8.88s WALL (  130783 calls)

     PWSCF        :   9m 8.30s CPU   9m14.79s WALL


   This run was terminated on:  16:17:36  18Mar2026            

=------------------------------------------------------------------------------=
   JOB DONE.
=------------------------------------------------------------------------------=
