
     Program PWSCF v.7.5 starts on 25Feb2026 at 16:10:51 

     This program is part of the open-source Quantum ESPRESSO suite
     for quantum simulation of materials; please cite
         "P. Giannozzi et al., J. Phys.:Condens. Matter 21 395502 (2009);
         "P. Giannozzi et al., J. Phys.:Condens. Matter 29 465901 (2017);
         "P. Giannozzi et al., J. Chem. Phys. 152 154105 (2020);
          URL http://www.quantum-espresso.org", 
     in publications or presentations arising from this work. More details at
     http://www.quantum-espresso.org/quote

     Parallel version (MPI), running on     5 processors

     MPI processes distributed on     1 nodes
     0 MiB available memory on the printing compute node when the environment starts

     Reading input from NiO.scf.in
Warning: card &CELL ignored
Warning: card     CELL_DOFREE='IBRAV' ignored

     Current dimensions of program PWSCF are:
     Max number of different atomic species (ntypx) = 10
     Max number of k-points (npk) =  40000
     Max angular momentum in pseudopotentials (lmaxx) =  4
     file Ni.pbesol-n-rrkjus_psl.0.1.UPF: wavefunction(s)  3D renormalized
     file Ni.pbesol-n-rrkjus_psl.0.1.UPF: wavefunction(s)  3D renormalized

     R & G space division:  proc/nbgrp/npool/nimage =       5
     Subspace diagonalization in iterative solution of the eigenvalue problem:
     a serial algorithm will be used


     Parallelization info
     --------------------
     sticks:   dense  smooth     PW     G-vecs:    dense   smooth      PW
     Min         231      92     30                 5243     1322     241
     Max         232      93     31                 5247     1324     244
     Sum        1159     463    151                26229     6615    1211

     Using Slab Decomposition



     bravais-lattice index     =            2
     lattice parameter (alat)  =       7.8370  a.u.
     unit-cell volume          =     120.3343 (a.u.)^3
     number of atoms/cell      =            4
     number of atomic types    =            3
     number of electrons       =        32.00 (up:  16.00, down:  16.00)
     number of Kohn-Sham states=           32
     kinetic-energy cutoff     =      55.0000  Ry
     charge density cutoff     =     550.0000  Ry
     scf convergence threshold =      1.0E-09
     mixing beta               =       0.3000
     number of iterations used =            8  plain     mixing
     Exchange-correlation= PBESOL
                           (   1   4  10   8   0   0   0)
     Hubbard projectors: ortho-atomic
     Hubbard parameters of DFT+U (Dudarev formulation) in eV:
     U(Ni1-3d) =  8.0000
     U(Ni2-3d) =  8.0000

     Internal variables: lda_plus_u =T, lda_plus_u_kind = 0

     Internal variables: orbital_resolved =F, hub_pot_fix =F, apply_U = F

     celldm(1)=   7.837000  celldm(2)=   0.000000  celldm(3)=   0.000000
     celldm(4)=   0.000000  celldm(5)=   0.000000  celldm(6)=   0.000000

     crystal axes: (cart. coord. in units of alat)
               a(1) = (  -0.500000   0.000000   0.500000 )  
               a(2) = (   0.000000   0.500000   0.500000 )  
               a(3) = (  -0.500000   0.500000   0.000000 )  

     reciprocal axes: (cart. coord. in units 2 pi/alat)
               b(1) = ( -1.000000 -1.000000  1.000000 )  
               b(2) = (  1.000000  1.000000  1.000000 )  
               b(3) = ( -1.000000  1.000000 -1.000000 )  


     PseudoPot. # 1 for Ni read from file:
     /Users/kirill/Documents/dft/volume/NiO_calibr/magnetization/../../../pot/Ni.pbesol-n-rrkjus_psl.0.1.UPF
     MD5 check sum: 8a65ecc087b22b902f7e15bb4f925df7
     Pseudo is Ultrasoft + core correction, Zval = 10.0
     Generated using "atomic" code by A. Dal Corso  v.5.0.2 svn rev. 9415
     Using radial grid of 1195 points,  6 beta functions with: 
                l(1) =   0
                l(2) =   0
                l(3) =   1
                l(4) =   1
                l(5) =   2
                l(6) =   2
     Q(r) pseudized with 0 coefficients 


     PseudoPot. # 2 for Ni read from file:
     /Users/kirill/Documents/dft/volume/NiO_calibr/magnetization/../../../pot/Ni.pbesol-n-rrkjus_psl.0.1.UPF
     MD5 check sum: 8a65ecc087b22b902f7e15bb4f925df7
     Pseudo is Ultrasoft + core correction, Zval = 10.0
     Generated using "atomic" code by A. Dal Corso  v.5.0.2 svn rev. 9415
     Using radial grid of 1195 points,  6 beta functions with: 
                l(1) =   0
                l(2) =   0
                l(3) =   1
                l(4) =   1
                l(5) =   2
                l(6) =   2
     Q(r) pseudized with 0 coefficients 


     PseudoPot. # 3 for O  read from file:
     /Users/kirill/Documents/dft/volume/NiO_calibr/magnetization/../../../pot/O.pbesol-n-rrkjus_psl.1.0.0.UPF
     MD5 check sum: 69b2cf9905362d8720b1d83b4ba3171b
     Pseudo is Ultrasoft + core correction, Zval =  6.0
     Generated using &quot;atomic&quot; code by A. Dal Corso  v.6.3MaX
     Using radial grid of 1095 points,  4 beta functions with: 
                l(1) =   0
                l(2) =   0
                l(3) =   1
                l(4) =   1
     Q(r) pseudized with 0 coefficients 


     atomic species   valence    mass     pseudopotential
     Ni1              10.00    58.69340     Ni( 1.00)
     Ni2              10.00    58.69340     Ni( 1.00)
     O                 6.00    15.99900     O ( 1.00)

     Starting magnetic structure 
     atomic species   magnetization
     Ni1             0.700
     Ni2            -0.700
     O               0.000

     48 Sym. Ops., with inversion, found



   Cartesian axes

     site n.     atom                  positions (alat units)
         1        Ni1    tau(   1) = (   0.0000000   0.0000000   0.0000000  )
         2        Ni2    tau(   2) = (   0.5000000   0.5000000   0.5000000  )
         3        O      tau(   3) = (   0.2500000   0.2500000   0.2500000  )
         4        O      tau(   4) = (   0.7500000   0.7500000   0.7500000  )

     number of k points=     8
                       cart. coord. in units 2pi/alat
        k(    1) = (   0.0000000   0.0000000   0.0000000), wk =   0.0156250
        k(    2) = (  -0.2500000   0.2500000  -0.2500000), wk =   0.1250000
        k(    3) = (   0.5000000  -0.5000000   0.5000000), wk =   0.0625000
        k(    4) = (   0.0000000   0.5000000   0.0000000), wk =   0.0937500
        k(    5) = (   0.7500000  -0.2500000   0.7500000), wk =   0.3750000
        k(    6) = (   0.5000000   0.0000000   0.5000000), wk =   0.1875000
        k(    7) = (   0.0000000  -1.0000000   0.0000000), wk =   0.0468750
        k(    8) = (  -0.5000000  -1.0000000   0.0000000), wk =   0.0937500

     Dense  grid:    26229 G-vectors     FFT dimensions: (  45,  45,  45)

     Smooth grid:     6615 G-vectors     FFT dimensions: (  27,  27,  27)

     Estimated max dynamical RAM per process >      28.90 MB

     Estimated total dynamical RAM >     144.51 MB
     Generating pointlists ...
     new r_m :   0.1786 (alat units)  1.3998 (a.u.) for type    1
     new r_m :   0.1786 (alat units)  1.3998 (a.u.) for type    2
     new r_m :   0.1786 (alat units)  1.3998 (a.u.) for type    3

     Initial potential from superposition of free atoms

     starting charge      31.9995, renormalised to      32.0000

     STARTING HUBBARD OCCUPATIONS:

     =================== HUBBARD OCCUPATIONS ===================
     ------------------------ ATOM    1 ------------------------
     Tr[ns(  1)] (up, down, total) =   5.00000  3.00000  8.00000
     Atomic magnetic moment for atom   1 =   2.00000
     SPIN  1
     eigenvalues:
       1.000  1.000  1.000  1.000  1.000
     eigenvectors (columns):
       1.000  0.000  0.000  0.000  0.000
       0.000  1.000  0.000  0.000  0.000
       0.000  0.000  1.000  0.000  0.000
       0.000  0.000  0.000  1.000  0.000
       0.000  0.000  0.000  0.000  1.000
     occupation matrix ns (before diag.):
       1.000  0.000  0.000  0.000  0.000
       0.000  1.000  0.000  0.000  0.000
       0.000  0.000  1.000  0.000  0.000
       0.000  0.000  0.000  1.000  0.000
       0.000  0.000  0.000  0.000  1.000
     SPIN  2
     eigenvalues:
       0.600  0.600  0.600  0.600  0.600
     eigenvectors (columns):
       1.000  0.000  0.000  0.000  0.000
       0.000  1.000  0.000  0.000  0.000
       0.000  0.000  1.000  0.000  0.000
       0.000  0.000  0.000  1.000  0.000
       0.000  0.000  0.000  0.000  1.000
     occupation matrix ns (before diag.):
       0.600  0.000  0.000  0.000  0.000
       0.000  0.600  0.000  0.000  0.000
       0.000  0.000  0.600  0.000  0.000
       0.000  0.000  0.000  0.600  0.000
       0.000  0.000  0.000  0.000  0.600
     ------------------------ ATOM    2 ------------------------
     Tr[ns(  2)] (up, down, total) =   3.00000  5.00000  8.00000
     Atomic magnetic moment for atom   2 =  -2.00000
     SPIN  1
     eigenvalues:
       0.600  0.600  0.600  0.600  0.600
     eigenvectors (columns):
       1.000  0.000  0.000  0.000  0.000
       0.000  1.000  0.000  0.000  0.000
       0.000  0.000  1.000  0.000  0.000
       0.000  0.000  0.000  1.000  0.000
       0.000  0.000  0.000  0.000  1.000
     occupation matrix ns (before diag.):
       0.600  0.000  0.000  0.000  0.000
       0.000  0.600  0.000  0.000  0.000
       0.000  0.000  0.600  0.000  0.000
       0.000  0.000  0.000  0.600  0.000
       0.000  0.000  0.000  0.000  0.600
     SPIN  2
     eigenvalues:
       1.000  1.000  1.000  1.000  1.000
     eigenvectors (columns):
       1.000  0.000  0.000  0.000  0.000
       0.000  1.000  0.000  0.000  0.000
       0.000  0.000  1.000  0.000  0.000
       0.000  0.000  0.000  1.000  0.000
       0.000  0.000  0.000  0.000  1.000
     occupation matrix ns (before diag.):
       1.000  0.000  0.000  0.000  0.000
       0.000  1.000  0.000  0.000  0.000
       0.000  0.000  1.000  0.000  0.000
       0.000  0.000  0.000  1.000  0.000
       0.000  0.000  0.000  0.000  1.000

     Number of occupied Hubbard levels =   16.0000

     Atomic wfc used for Hubbard projectors are orthogonalized

     Starting wfcs are   26 randomized atomic wfcs +    6 random wfcs

     total cpu time spent up to now is        0.4 secs

     Self-consistent Calculation

     iteration #  1     ecut=    55.00 Ry     beta= 0.30
     Davidson diagonalization with overlap
     ethr =  1.00E-02,  avg # of iterations =  7.6

     =================== HUBBARD OCCUPATIONS ===================
     ------------------------ ATOM    1 ------------------------
     Tr[ns(  1)] (up, down, total) =   4.93741  3.43775  8.37516
     Atomic magnetic moment for atom   1 =   1.49966
     SPIN  1
     eigenvalues:
       0.986  0.986  0.986  0.990  0.990
     eigenvectors (columns):
      -0.000 -0.000  0.000  0.208 -0.978
      -0.280 -0.931  0.236  0.000  0.000
      -0.589 -0.027 -0.808  0.000  0.000
       0.000  0.000 -0.000  0.978  0.208
       0.758 -0.365 -0.541 -0.000 -0.000
     occupation matrix ns (before diag.):
       0.990 -0.000 -0.000 -0.000  0.000
      -0.000  0.986 -0.000  0.000  0.000
      -0.000 -0.000  0.986  0.000  0.000
      -0.000  0.000  0.000  0.990 -0.000
       0.000  0.000  0.000 -0.000  0.986
     SPIN  2
     eigenvalues:
       0.530  0.530  0.530  0.924  0.924
     eigenvectors (columns):
      -0.000 -0.000  0.000 -0.309  0.951
      -0.278 -0.941  0.192 -0.000 -0.000
      -0.587  0.009 -0.809 -0.000 -0.000
       0.000  0.000 -0.000 -0.951 -0.309
       0.760 -0.338 -0.555  0.000  0.000
     occupation matrix ns (before diag.):
       0.924 -0.000 -0.000 -0.000  0.000
      -0.000  0.530 -0.000  0.000  0.000
      -0.000 -0.000  0.530  0.000  0.000
      -0.000  0.000  0.000  0.924 -0.000
       0.000  0.000  0.000 -0.000  0.530
     ------------------------ ATOM    2 ------------------------
     Tr[ns(  2)] (up, down, total) =   3.43761  4.93741  8.37502
     Atomic magnetic moment for atom   2 =  -1.49980
     SPIN  1
     eigenvalues:
       0.530  0.530  0.530  0.924  0.924
     eigenvectors (columns):
      -0.000  0.000 -0.000  0.892  0.453
      -0.278 -0.675 -0.683 -0.000 -0.000
      -0.627 -0.411  0.662  0.000 -0.000
       0.000 -0.000  0.000  0.453 -0.892
       0.728 -0.613  0.309  0.000  0.000
     occupation matrix ns (before diag.):
       0.924 -0.000 -0.000 -0.000  0.000
      -0.000  0.530 -0.000  0.000  0.000
      -0.000 -0.000  0.530  0.000  0.000
      -0.000  0.000  0.000  0.924 -0.000
       0.000  0.000  0.000 -0.000  0.530
     SPIN  2
     eigenvalues:
       0.986  0.986  0.986  0.990  0.990
     eigenvectors (columns):
      -0.000 -0.000  0.000 -0.234  0.972
      -0.271 -0.917  0.293 -0.000 -0.000
      -0.615 -0.069 -0.785 -0.000 -0.000
       0.000  0.000 -0.000 -0.972 -0.234
       0.740 -0.393 -0.545  0.000  0.000
     occupation matrix ns (before diag.):
       0.990 -0.000 -0.000 -0.000  0.000
      -0.000  0.986 -0.000  0.000  0.000
      -0.000 -0.000  0.986  0.000  0.000
      -0.000  0.000  0.000  0.990 -0.000
       0.000  0.000  0.000 -0.000  0.986

     Number of occupied Hubbard levels =   16.7502

     total cpu time spent up to now is        0.8 secs

     total energy              =    -262.61834914 Ry
     estimated scf accuracy    <       1.41575429 Ry

     total magnetization       =    -0.00 Bohr mag/cell
     absolute magnetization    =     3.35 Bohr mag/cell

     iteration #  2     ecut=    55.00 Ry     beta= 0.30
     Davidson diagonalization with overlap
     ethr =  4.42E-03,  avg # of iterations =  1.1

     total cpu time spent up to now is        1.1 secs

     total energy              =    -262.87258480 Ry
     estimated scf accuracy    <       0.69057668 Ry

     total magnetization       =     0.00 Bohr mag/cell
     absolute magnetization    =     2.90 Bohr mag/cell

     iteration #  3     ecut=    55.00 Ry     beta= 0.30
     Davidson diagonalization with overlap
     ethr =  2.16E-03,  avg # of iterations =  1.1

     total cpu time spent up to now is        1.3 secs

     total energy              =    -262.98418687 Ry
     estimated scf accuracy    <       0.19328942 Ry

     total magnetization       =    -0.00 Bohr mag/cell
     absolute magnetization    =     2.63 Bohr mag/cell

     iteration #  4     ecut=    55.00 Ry     beta= 0.30
     Davidson diagonalization with overlap
     ethr =  6.04E-04,  avg # of iterations =  2.2

     total cpu time spent up to now is        1.5 secs

     total energy              =    -263.00262540 Ry
     estimated scf accuracy    <       0.03334375 Ry

     total magnetization       =    -0.00 Bohr mag/cell
     absolute magnetization    =     2.27 Bohr mag/cell

     iteration #  5     ecut=    55.00 Ry     beta= 0.30
     Davidson diagonalization with overlap
     ethr =  1.04E-04,  avg # of iterations =  2.7

     total cpu time spent up to now is        1.8 secs

     total energy              =    -263.01047019 Ry
     estimated scf accuracy    <       0.00337277 Ry

     total magnetization       =     0.00 Bohr mag/cell
     absolute magnetization    =     2.02 Bohr mag/cell

     iteration #  6     ecut=    55.00 Ry     beta= 0.30
     Davidson diagonalization with overlap
     ethr =  1.05E-05,  avg # of iterations =  5.9

     total cpu time spent up to now is        2.1 secs

     total energy              =    -263.01177761 Ry
     estimated scf accuracy    <       0.00095695 Ry

     total magnetization       =    -0.00 Bohr mag/cell
     absolute magnetization    =     1.96 Bohr mag/cell

     iteration #  7     ecut=    55.00 Ry     beta= 0.30
     Davidson diagonalization with overlap
     ethr =  2.99E-06,  avg # of iterations =  2.9

     total cpu time spent up to now is        2.4 secs

     total energy              =    -263.01244575 Ry
     estimated scf accuracy    <       0.00023134 Ry

     total magnetization       =     0.00 Bohr mag/cell
     absolute magnetization    =     1.86 Bohr mag/cell

     iteration #  8     ecut=    55.00 Ry     beta= 0.30
     Davidson diagonalization with overlap
     ethr =  7.23E-07,  avg # of iterations =  1.9

     total cpu time spent up to now is        2.6 secs

     total energy              =    -263.01257673 Ry
     estimated scf accuracy    <       0.00005972 Ry

     total magnetization       =     0.00 Bohr mag/cell
     absolute magnetization    =     1.82 Bohr mag/cell

     iteration #  9     ecut=    55.00 Ry     beta= 0.30
     Davidson diagonalization with overlap
     ethr =  1.87E-07,  avg # of iterations =  1.8

     total cpu time spent up to now is        2.9 secs

     total energy              =    -263.01253599 Ry
     estimated scf accuracy    <       0.00001629 Ry

     total magnetization       =    -0.00 Bohr mag/cell
     absolute magnetization    =     1.80 Bohr mag/cell

     iteration # 10     ecut=    55.00 Ry     beta= 0.30
     Davidson diagonalization with overlap
     ethr =  5.09E-08,  avg # of iterations =  2.9

     total cpu time spent up to now is        3.2 secs

     total energy              =    -263.01261057 Ry
     estimated scf accuracy    <       0.00000553 Ry

     total magnetization       =    -0.00 Bohr mag/cell
     absolute magnetization    =     1.76 Bohr mag/cell

     iteration # 11     ecut=    55.00 Ry     beta= 0.30
     Davidson diagonalization with overlap
     ethr =  1.73E-08,  avg # of iterations =  1.8

     total cpu time spent up to now is        3.4 secs

     total energy              =    -263.01262386 Ry
     estimated scf accuracy    <       0.00000005 Ry

     total magnetization       =     0.00 Bohr mag/cell
     absolute magnetization    =     1.78 Bohr mag/cell

     iteration # 12     ecut=    55.00 Ry     beta= 0.30
     Davidson diagonalization with overlap
     ethr =  1.71E-10,  avg # of iterations =  4.4

     total cpu time spent up to now is        3.8 secs

     total energy              =    -263.01262403 Ry
     estimated scf accuracy    <       0.00000003 Ry

     total magnetization       =     0.00 Bohr mag/cell
     absolute magnetization    =     1.78 Bohr mag/cell

     iteration # 13     ecut=    55.00 Ry     beta= 0.30
     Davidson diagonalization with overlap
     ethr =  1.02E-10,  avg # of iterations =  1.1

     total cpu time spent up to now is        4.0 secs

     total energy              =    -263.01262402 Ry
     estimated scf accuracy    <       0.00000002 Ry

     total magnetization       =     0.00 Bohr mag/cell
     absolute magnetization    =     1.78 Bohr mag/cell

     iteration # 14     ecut=    55.00 Ry     beta= 0.30
     Davidson diagonalization with overlap
     ethr =  4.90E-11,  avg # of iterations =  2.0

     Magnetic moment per site  (integrated on atomic sphere of radius R)
     atom   1 (R=0.179)  charge=  7.5580  magn=  0.8098
     atom   2 (R=0.179)  charge=  7.5581  magn= -0.8098
     atom   3 (R=0.179)  charge=  5.4357  magn= -0.0000
     atom   4 (R=0.179)  charge=  5.4357  magn= -0.0000

     total cpu time spent up to now is        4.2 secs

     End of self-consistent calculation

     =================== HUBBARD OCCUPATIONS ===================
     ------------------------ ATOM    1 ------------------------
     Tr[ns(  1)] (up, down, total) =   4.74237  3.92227  8.66463
     Atomic magnetic moment for atom   1 =   0.82010
     SPIN  1
     eigenvalues:
       0.930  0.930  0.930  0.977  0.977
     eigenvectors (columns):
      -0.000 -0.000  0.000 -0.593  0.805
      -0.272 -0.934  0.234 -0.000 -0.000
      -0.592 -0.029 -0.805 -0.000 -0.000
       0.000  0.000 -0.000 -0.805 -0.593
       0.759 -0.357 -0.545  0.000  0.000
     occupation matrix ns (before diag.):
       0.977 -0.000 -0.000 -0.000  0.000
      -0.000  0.930 -0.000  0.000  0.000
      -0.000 -0.000  0.930  0.000  0.000
      -0.000  0.000  0.000  0.977 -0.000
       0.000  0.000  0.000 -0.000  0.930
     SPIN  2
     eigenvalues:
       0.665  0.665  0.665  0.964  0.964
     eigenvectors (columns):
      -0.000 -0.000  0.000 -0.427  0.904
      -0.268 -0.882  0.388 -0.000 -0.000
      -0.609 -0.158 -0.778 -0.000 -0.000
       0.000  0.000 -0.000 -0.904 -0.427
       0.747 -0.445 -0.494  0.000  0.000
     occupation matrix ns (before diag.):
       0.964 -0.000 -0.000 -0.000  0.000
      -0.000  0.665 -0.000  0.000  0.000
      -0.000 -0.000  0.665  0.000  0.000
      -0.000  0.000  0.000  0.964 -0.000
       0.000  0.000  0.000 -0.000  0.665
     ------------------------ ATOM    2 ------------------------
     Tr[ns(  2)] (up, down, total) =   3.92226  4.74237  8.66463
     Atomic magnetic moment for atom   2 =  -0.82010
     SPIN  1
     eigenvalues:
       0.665  0.665  0.665  0.964  0.964
     eigenvectors (columns):
      -0.000 -0.000  0.000  0.229 -0.973
      -0.253 -0.958  0.136  0.000  0.000
      -0.586  0.040 -0.809  0.000  0.000
       0.000  0.000 -0.000  0.973  0.229
       0.770 -0.284 -0.572 -0.000 -0.000
     occupation matrix ns (before diag.):
       0.964 -0.000 -0.000 -0.000  0.000
      -0.000  0.665 -0.000  0.000  0.000
      -0.000 -0.000  0.665  0.000  0.000
      -0.000  0.000  0.000  0.964 -0.000
       0.000  0.000  0.000 -0.000  0.665
     SPIN  2
     eigenvalues:
       0.930  0.930  0.930  0.977  0.977
     eigenvectors (columns):
      -0.000 -0.000  0.000 -0.278  0.961
      -0.263 -0.928  0.263 -0.000 -0.000
      -0.607 -0.053 -0.793 -0.000 -0.000
       0.000  0.000 -0.000 -0.961 -0.278
       0.750 -0.368 -0.549  0.000  0.000
     occupation matrix ns (before diag.):
       0.977 -0.000 -0.000 -0.000  0.000
      -0.000  0.930 -0.000  0.000  0.000
      -0.000 -0.000  0.930  0.000  0.000
      -0.000  0.000  0.000  0.977 -0.000
       0.000  0.000  0.000 -0.000  0.930

     Number of occupied Hubbard levels =   17.3293

 ------ SPIN UP ------------


          k = 0.0000 0.0000 0.0000 (   869 PWs)   bands (ev):

     0.0351   9.3369  13.2429  13.2429  13.2429  18.1783  18.1783  23.7139
    23.7139  23.7139  25.9624  25.9624  25.9624  26.6922  26.6922  31.4770
    31.4770  31.4770  38.7676  38.7676  38.7676  38.9694  50.2615  50.2615
    60.4291  63.6845  63.6845  63.6845  64.6253  64.6253  64.6254  73.2446

          k =-0.2500 0.2500-0.2500 (   827 PWs)   bands (ev):

     1.2063   6.5119  14.3122  14.3122  17.5192  17.9781  17.9781  20.5847
    22.8510  22.8510  24.9276  24.9276  26.2905  26.9170  26.9170  28.7306
    30.5380  30.5380  40.8716  41.0741  42.7049  42.7049  50.6284  50.6284
    58.8822  60.7762  60.7762  61.8225  62.0583  62.0583  66.3156  70.0993

          k = 0.5000-0.5000 0.5000 (   832 PWs)   bands (ev):

     3.6511   3.8124  16.3436  16.3436  17.1150  17.1150  19.3334  19.6738
    21.9873  21.9873  23.1621  23.1621  25.1734  27.7655  27.9570  27.9570
    29.8185  29.8185  42.1818  42.3198  49.3416  49.3416  49.3812  49.3812
    57.2785  57.2785  57.3681  57.3681  57.9470  57.9478  75.3314  75.3390

          k = 0.0000 0.5000 0.0000 (   833 PWs)   bands (ev):

     1.5969   6.0897  14.6190  14.6190  15.7870  18.7821  18.7841  21.2668
    21.2668  22.7774  24.2414  26.0917  26.6311  26.9328  26.9328  29.3697
    29.3697  30.5885  40.1974  41.1186  44.1219  44.1219  48.8999  50.3949
    58.9576  58.9576  59.2654  63.9759  63.9759  65.0780  65.9411  66.0006

          k = 0.7500-0.2500 0.7500 (   822 PWs)   bands (ev):

     3.4869   4.5123  13.9610  15.5205  16.2445  18.5475  20.3561  20.4917
    21.1278  22.0863  24.5723  24.6992  25.6532  26.3425  26.6751  28.7358
    29.8205  30.4261  41.7392  43.1445  47.5291  47.7690  48.8070  50.1716
    53.0710  55.3547  57.6182  61.1909  62.6818  65.4978  67.7591  70.8715

          k = 0.5000 0.0000 0.5000 (   837 PWs)   bands (ev):

     2.7390   5.0585  14.3442  16.0074  16.3004  17.2723  20.7562  21.2160
    21.3889  22.0825  24.1001  25.0261  25.1408  25.5073  26.9424  28.6778
    29.5982  31.0831  42.4742  42.6170  45.4555  46.5393  49.5847  51.0858
    53.6383  56.2968  59.7380  61.1362  62.0629  65.1093  66.4005  68.2089

          k = 0.0000-1.0000 0.0000 (   806 PWs)   bands (ev):

     3.9887   4.4671  11.8731  16.6225  16.6225  19.4474  19.7168  19.7168
    19.9245  24.2667  24.2667  25.2092  25.5911  26.5716  26.6297  27.9877
    30.8195  30.8195  40.8336  43.2095  47.1459  47.3085  49.4076  49.4076
    54.6240  55.0670  55.0670  63.2504  64.4179  64.4179  68.0814  68.0814

          k =-0.5000-1.0000 0.0000 (   848 PWs)   bands (ev):

     4.2297   4.2297  13.7368  13.7904  18.1344  18.1344  20.3067  20.3978
    20.4576  22.0643  24.8831  24.8831  26.2886  26.3615  28.2632  28.7383
    28.7383  29.6836  43.1071  43.1660  46.1061  46.1061  52.1233  52.1233
    52.2657  52.3083  58.8097  58.8097  66.9765  67.1983  67.2297  67.2422

 ------ SPIN DOWN ----------


          k = 0.0000 0.0000 0.0000 (   869 PWs)   bands (ev):

     0.0351   9.3369  13.2429  13.2429  13.2429  18.1783  18.1783  23.7139
    23.7139  23.7139  25.9624  25.9624  25.9624  26.6922  26.6922  31.4770
    31.4770  31.4770  38.7676  38.7676  38.7676  38.9695  50.2614  50.2614
    60.4291  63.6845  63.6845  63.6845  64.6253  64.6254  64.6254  73.2446

          k =-0.2500 0.2500-0.2500 (   827 PWs)   bands (ev):

     1.2063   6.5119  14.3122  14.3122  17.5192  17.9781  17.9781  20.5847
    22.8510  22.8510  24.9276  24.9276  26.2905  26.9170  26.9170  28.7306
    30.5380  30.5380  40.8716  41.0741  42.7049  42.7049  50.6284  50.6284
    58.8822  60.7762  60.7762  61.8225  62.0583  62.0583  66.3155  70.0993

          k = 0.5000-0.5000 0.5000 (   832 PWs)   bands (ev):

     3.6511   3.8124  16.3436  16.3436  17.1150  17.1150  19.3334  19.6738
    21.9873  21.9873  23.1621  23.1621  25.1734  27.7655  27.9570  27.9570
    29.8185  29.8185  42.1818  42.3198  49.3416  49.3416  49.3812  49.3812
    57.2785  57.2785  57.3681  57.3681  57.9470  57.9478  75.2892  75.3067

          k = 0.0000 0.5000 0.0000 (   833 PWs)   bands (ev):

     1.5970   6.0897  14.6190  14.6190  15.7870  18.7821  18.7841  21.2668
    21.2668  22.7774  24.2414  26.0917  26.6311  26.9328  26.9328  29.3697
    29.3697  30.5885  40.1974  41.1186  44.1219  44.1219  48.8999  50.3949
    58.9576  58.9576  59.2654  63.9759  63.9759  65.0779  65.9411  66.0006

          k = 0.7500-0.2500 0.7500 (   822 PWs)   bands (ev):

     3.4870   4.5123  13.9610  15.5205  16.2445  18.5475  20.3561  20.4917
    21.1278  22.0863  24.5723  24.6992  25.6532  26.3425  26.6751  28.7358
    29.8205  30.4261  41.7392  43.1445  47.5291  47.7690  48.8070  50.1716
    53.0710  55.3547  57.6182  61.1909  62.6818  65.4978  67.7591  70.8716

          k = 0.5000 0.0000 0.5000 (   837 PWs)   bands (ev):

     2.7390   5.0585  14.3442  16.0074  16.3004  17.2723  20.7562  21.2160
    21.3889  22.0825  24.1001  25.0261  25.1408  25.5073  26.9424  28.6778
    29.5982  31.0831  42.4742  42.6170  45.4555  46.5393  49.5847  51.0858
    53.6383  56.2968  59.7380  61.1362  62.0629  65.1093  66.4005  68.2090

          k = 0.0000-1.0000 0.0000 (   806 PWs)   bands (ev):

     3.9887   4.4671  11.8731  16.6225  16.6225  19.4474  19.7168  19.7168
    19.9245  24.2667  24.2667  25.2092  25.5911  26.5716  26.6297  27.9877
    30.8195  30.8195  40.8336  43.2095  47.1459  47.3085  49.4076  49.4076
    54.6240  55.0670  55.0670  63.2504  64.4179  64.4179  68.0814  68.0814

          k =-0.5000-1.0000 0.0000 (   848 PWs)   bands (ev):

     4.2297   4.2297  13.7368  13.7904  18.1344  18.1344  20.3067  20.3978
    20.4576  22.0643  24.8831  24.8831  26.2886  26.3615  28.2632  28.7383
    28.7383  29.6836  43.1070  43.1660  46.1061  46.1061  52.1233  52.1233
    52.2657  52.3083  58.8097  58.8097  66.9764  67.1983  67.2297  67.2422

     highest occupied, lowest unoccupied level (ev):    31.4770   28.7383

!    total energy              =    -263.01262406 Ry
     estimated scf accuracy    <          7.7E-10 Ry

     The total energy is the sum of the following terms:
     one-electron contribution =      49.32549207 Ry
     hartree contribution      =      33.50630974 Ry
     xc contribution           =    -100.35450065 Ry
     ewald contribution        =    -246.06598117 Ry
     Hubbard energy            =       0.57605595 Ry

     total magnetization       =     0.00 Bohr mag/cell
     absolute magnetization    =     1.78 Bohr mag/cell

     convergence has been achieved in  14 iterations

     Writing all to output data dir /Users/kirill/Documents/dft/volume/NiO_calibr/magnetization/out/NiO.save/ :
     XML data file, charge density, pseudopotentials, collected wavefunctions

     init_run     :      0.27s CPU      0.27s WALL (       1 calls)
     electrons    :      3.78s CPU      3.85s WALL (       1 calls)

     Called by init_run:
     wfcinit      :      0.06s CPU      0.07s WALL (       1 calls)
     potinit      :      0.03s CPU      0.03s WALL (       1 calls)
     hinit0       :      0.14s CPU      0.14s WALL (       1 calls)

     Called by electrons:
     c_bands      :      2.51s CPU      2.57s WALL (      14 calls)
     sum_band     :      0.81s CPU      0.82s WALL (      14 calls)
     v_of_rho     :      0.20s CPU      0.21s WALL (      15 calls)
     newd         :      0.25s CPU      0.25s WALL (      15 calls)
     mix_rho      :      0.02s CPU      0.02s WALL (      14 calls)

     Called by c_bands:
     init_us_2    :      0.02s CPU      0.02s WALL (     480 calls)
     cegterg      :      2.46s CPU      2.51s WALL (     224 calls)

     Called by *egterg:
     cdiaghg      :      0.66s CPU      0.66s WALL (     855 calls)
     h_psi        :      1.62s CPU      1.66s WALL (     871 calls)
     s_psi        :      0.04s CPU      0.04s WALL (     887 calls)
     g_psi        :      0.00s CPU      0.00s WALL (     631 calls)

     Called by h_psi:
     h_psi:calbec :      0.05s CPU      0.06s WALL (     871 calls)
     vloc_psi     :      1.47s CPU      1.50s WALL (     871 calls)
                                        0.00s GPU  (     871 calls)
     add_vuspsi   :      0.04s CPU      0.04s WALL (     871 calls)
     vhpsi        :      0.06s CPU      0.06s WALL (     871 calls)

     General routines
     calbec       :      0.11s CPU      0.12s WALL (    2206 calls)
     fft          :      0.13s CPU      0.13s WALL (     369 calls)
     ffts         :      0.00s CPU      0.00s WALL (      58 calls)
     fftw         :      1.69s CPU      1.73s WALL (   41426 calls)
     interpolate  :      0.01s CPU      0.01s WALL (      30 calls)

     Parallel routines

     Hubbard U routines
     new_ns       :      0.01s CPU      0.01s WALL (      14 calls)
     vhpsi        :      0.06s CPU      0.06s WALL (     871 calls)

     PWSCF        :      4.18s CPU      4.26s WALL


   This run was terminated on:  16:10:55  25Feb2026            

=------------------------------------------------------------------------------=
   JOB DONE.
=------------------------------------------------------------------------------=
