
     Program PWSCF v.7.5 starts on 25Feb2026 at 17:28: 2 

     This program is part of the open-source Quantum ESPRESSO suite
     for quantum simulation of materials; please cite
         "P. Giannozzi et al., J. Phys.:Condens. Matter 21 395502 (2009);
         "P. Giannozzi et al., J. Phys.:Condens. Matter 29 465901 (2017);
         "P. Giannozzi et al., J. Chem. Phys. 152 154105 (2020);
          URL http://www.quantum-espresso.org", 
     in publications or presentations arising from this work. More details at
     http://www.quantum-espresso.org/quote

     Parallel version (MPI), running on     5 processors

     MPI processes distributed on     1 nodes
     0 MiB available memory on the printing compute node when the environment starts

     Reading input from NiO.scf.in
Warning: card &CELL ignored
Warning: card     CELL_DOFREE='IBRAV' ignored

     Current dimensions of program PWSCF are:
     Max number of different atomic species (ntypx) = 10
     Max number of k-points (npk) =  40000
     Max angular momentum in pseudopotentials (lmaxx) =  4
     file Ni.pbesol-n-rrkjus_psl.0.1.UPF: wavefunction(s)  3D renormalized
     file Ni.pbesol-n-rrkjus_psl.0.1.UPF: wavefunction(s)  3D renormalized

     R & G space division:  proc/nbgrp/npool/nimage =       5
     Subspace diagonalization in iterative solution of the eigenvalue problem:
     a serial algorithm will be used


     Parallelization info
     --------------------
     sticks:   dense  smooth     PW     G-vecs:    dense   smooth      PW
     Min         231      92     30                 5243     1322     241
     Max         232      93     31                 5247     1324     244
     Sum        1159     463    151                26229     6615    1211

     Using Slab Decomposition



     bravais-lattice index     =            2
     lattice parameter (alat)  =       7.8370  a.u.
     unit-cell volume          =     120.3343 (a.u.)^3
     number of atoms/cell      =            4
     number of atomic types    =            3
     number of electrons       =        32.00 (up:  16.00, down:  16.00)
     number of Kohn-Sham states=           32
     kinetic-energy cutoff     =      55.0000  Ry
     charge density cutoff     =     550.0000  Ry
     scf convergence threshold =      1.0E-09
     mixing beta               =       0.3000
     number of iterations used =            8  plain     mixing
     Exchange-correlation= PBESOL
                           (   1   4  10   8   0   0   0)
     Hubbard projectors: ortho-atomic
     Hubbard parameters of DFT+U (Dudarev formulation) in eV:
     U(Ni1-3d) =  4.6000
     U(Ni2-3d) =  4.6000
     U(O-2p) =  6.0000

     Internal variables: lda_plus_u =T, lda_plus_u_kind = 0

     Internal variables: orbital_resolved =F, hub_pot_fix =F, apply_U = F

     celldm(1)=   7.837000  celldm(2)=   0.000000  celldm(3)=   0.000000
     celldm(4)=   0.000000  celldm(5)=   0.000000  celldm(6)=   0.000000

     crystal axes: (cart. coord. in units of alat)
               a(1) = (  -0.500000   0.000000   0.500000 )  
               a(2) = (   0.000000   0.500000   0.500000 )  
               a(3) = (  -0.500000   0.500000   0.000000 )  

     reciprocal axes: (cart. coord. in units 2 pi/alat)
               b(1) = ( -1.000000 -1.000000  1.000000 )  
               b(2) = (  1.000000  1.000000  1.000000 )  
               b(3) = ( -1.000000  1.000000 -1.000000 )  


     PseudoPot. # 1 for Ni read from file:
     /Users/kirill/Documents/dft/volume/NiO_calibr/band_gap_U/../../../pot/Ni.pbesol-n-rrkjus_psl.0.1.UPF
     MD5 check sum: 8a65ecc087b22b902f7e15bb4f925df7
     Pseudo is Ultrasoft + core correction, Zval = 10.0
     Generated using "atomic" code by A. Dal Corso  v.5.0.2 svn rev. 9415
     Using radial grid of 1195 points,  6 beta functions with: 
                l(1) =   0
                l(2) =   0
                l(3) =   1
                l(4) =   1
                l(5) =   2
                l(6) =   2
     Q(r) pseudized with 0 coefficients 


     PseudoPot. # 2 for Ni read from file:
     /Users/kirill/Documents/dft/volume/NiO_calibr/band_gap_U/../../../pot/Ni.pbesol-n-rrkjus_psl.0.1.UPF
     MD5 check sum: 8a65ecc087b22b902f7e15bb4f925df7
     Pseudo is Ultrasoft + core correction, Zval = 10.0
     Generated using "atomic" code by A. Dal Corso  v.5.0.2 svn rev. 9415
     Using radial grid of 1195 points,  6 beta functions with: 
                l(1) =   0
                l(2) =   0
                l(3) =   1
                l(4) =   1
                l(5) =   2
                l(6) =   2
     Q(r) pseudized with 0 coefficients 


     PseudoPot. # 3 for O  read from file:
     /Users/kirill/Documents/dft/volume/NiO_calibr/band_gap_U/../../../pot/O.pbesol-n-rrkjus_psl.1.0.0.UPF
     MD5 check sum: 69b2cf9905362d8720b1d83b4ba3171b
     Pseudo is Ultrasoft + core correction, Zval =  6.0
     Generated using &quot;atomic&quot; code by A. Dal Corso  v.6.3MaX
     Using radial grid of 1095 points,  4 beta functions with: 
                l(1) =   0
                l(2) =   0
                l(3) =   1
                l(4) =   1
     Q(r) pseudized with 0 coefficients 


     atomic species   valence    mass     pseudopotential
     Ni1              10.00    58.69340     Ni( 1.00)
     Ni2              10.00    58.69340     Ni( 1.00)
     O                 6.00    15.99900     O ( 1.00)

     Starting magnetic structure 
     atomic species   magnetization
     Ni1             0.200
     Ni2            -0.200
     O               0.000

     48 Sym. Ops., with inversion, found



   Cartesian axes

     site n.     atom                  positions (alat units)
         1        Ni1    tau(   1) = (   0.0000000   0.0000000   0.0000000  )
         2        Ni2    tau(   2) = (   0.5000000   0.5000000   0.5000000  )
         3        O      tau(   3) = (   0.2500000   0.2500000   0.2500000  )
         4        O      tau(   4) = (   0.7500000   0.7500000   0.7500000  )

     number of k points=     8
                       cart. coord. in units 2pi/alat
        k(    1) = (   0.0000000   0.0000000   0.0000000), wk =   0.0156250
        k(    2) = (  -0.2500000   0.2500000  -0.2500000), wk =   0.1250000
        k(    3) = (   0.5000000  -0.5000000   0.5000000), wk =   0.0625000
        k(    4) = (   0.0000000   0.5000000   0.0000000), wk =   0.0937500
        k(    5) = (   0.7500000  -0.2500000   0.7500000), wk =   0.3750000
        k(    6) = (   0.5000000   0.0000000   0.5000000), wk =   0.1875000
        k(    7) = (   0.0000000  -1.0000000   0.0000000), wk =   0.0468750
        k(    8) = (  -0.5000000  -1.0000000   0.0000000), wk =   0.0937500

     Dense  grid:    26229 G-vectors     FFT dimensions: (  45,  45,  45)

     Smooth grid:     6615 G-vectors     FFT dimensions: (  27,  27,  27)

     Estimated max dynamical RAM per process >      29.16 MB

     Estimated total dynamical RAM >     145.79 MB
     Generating pointlists ...
     new r_m :   0.1786 (alat units)  1.3998 (a.u.) for type    1
     new r_m :   0.1786 (alat units)  1.3998 (a.u.) for type    2
     new r_m :   0.1786 (alat units)  1.3998 (a.u.) for type    3

     Initial potential from superposition of free atoms

     starting charge      31.9995, renormalised to      32.0000

     STARTING HUBBARD OCCUPATIONS:

     =================== HUBBARD OCCUPATIONS ===================
     ------------------------ ATOM    1 ------------------------
     Tr[ns(  1)] (up, down, total) =   5.00000  3.00000  8.00000
     Atomic magnetic moment for atom   1 =   2.00000
     SPIN  1
     eigenvalues:
       1.000  1.000  1.000  1.000  1.000
     eigenvectors (columns):
       1.000  0.000  0.000  0.000  0.000
       0.000  1.000  0.000  0.000  0.000
       0.000  0.000  1.000  0.000  0.000
       0.000  0.000  0.000  1.000  0.000
       0.000  0.000  0.000  0.000  1.000
     occupation matrix ns (before diag.):
       1.000  0.000  0.000  0.000  0.000
       0.000  1.000  0.000  0.000  0.000
       0.000  0.000  1.000  0.000  0.000
       0.000  0.000  0.000  1.000  0.000
       0.000  0.000  0.000  0.000  1.000
     SPIN  2
     eigenvalues:
       0.600  0.600  0.600  0.600  0.600
     eigenvectors (columns):
       1.000  0.000  0.000  0.000  0.000
       0.000  1.000  0.000  0.000  0.000
       0.000  0.000  1.000  0.000  0.000
       0.000  0.000  0.000  1.000  0.000
       0.000  0.000  0.000  0.000  1.000
     occupation matrix ns (before diag.):
       0.600  0.000  0.000  0.000  0.000
       0.000  0.600  0.000  0.000  0.000
       0.000  0.000  0.600  0.000  0.000
       0.000  0.000  0.000  0.600  0.000
       0.000  0.000  0.000  0.000  0.600
     ------------------------ ATOM    2 ------------------------
     Tr[ns(  2)] (up, down, total) =   3.00000  5.00000  8.00000
     Atomic magnetic moment for atom   2 =  -2.00000
     SPIN  1
     eigenvalues:
       0.600  0.600  0.600  0.600  0.600
     eigenvectors (columns):
       1.000  0.000  0.000  0.000  0.000
       0.000  1.000  0.000  0.000  0.000
       0.000  0.000  1.000  0.000  0.000
       0.000  0.000  0.000  1.000  0.000
       0.000  0.000  0.000  0.000  1.000
     occupation matrix ns (before diag.):
       0.600  0.000  0.000  0.000  0.000
       0.000  0.600  0.000  0.000  0.000
       0.000  0.000  0.600  0.000  0.000
       0.000  0.000  0.000  0.600  0.000
       0.000  0.000  0.000  0.000  0.600
     SPIN  2
     eigenvalues:
       1.000  1.000  1.000  1.000  1.000
     eigenvectors (columns):
       1.000  0.000  0.000  0.000  0.000
       0.000  1.000  0.000  0.000  0.000
       0.000  0.000  1.000  0.000  0.000
       0.000  0.000  0.000  1.000  0.000
       0.000  0.000  0.000  0.000  1.000
     occupation matrix ns (before diag.):
       1.000  0.000  0.000  0.000  0.000
       0.000  1.000  0.000  0.000  0.000
       0.000  0.000  1.000  0.000  0.000
       0.000  0.000  0.000  1.000  0.000
       0.000  0.000  0.000  0.000  1.000
     ------------------------ ATOM    3 ------------------------
     Tr[ns(  3)] (up, down, total) =   2.00000  2.00000  4.00000
     Atomic magnetic moment for atom   3 =   0.00000
     SPIN  1
     eigenvalues:
       0.667  0.667  0.667
     eigenvectors (columns):
       1.000  0.000  0.000
       0.000  1.000  0.000
       0.000  0.000  1.000
     occupation matrix ns (before diag.):
       0.667  0.000  0.000
       0.000  0.667  0.000
       0.000  0.000  0.667
     SPIN  2
     eigenvalues:
       0.667  0.667  0.667
     eigenvectors (columns):
       1.000  0.000  0.000
       0.000  1.000  0.000
       0.000  0.000  1.000
     occupation matrix ns (before diag.):
       0.667  0.000  0.000
       0.000  0.667  0.000
       0.000  0.000  0.667
     ------------------------ ATOM    4 ------------------------
     Tr[ns(  4)] (up, down, total) =   2.00000  2.00000  4.00000
     Atomic magnetic moment for atom   4 =   0.00000
     SPIN  1
     eigenvalues:
       0.667  0.667  0.667
     eigenvectors (columns):
       1.000  0.000  0.000
       0.000  1.000  0.000
       0.000  0.000  1.000
     occupation matrix ns (before diag.):
       0.667  0.000  0.000
       0.000  0.667  0.000
       0.000  0.000  0.667
     SPIN  2
     eigenvalues:
       0.667  0.667  0.667
     eigenvectors (columns):
       1.000  0.000  0.000
       0.000  1.000  0.000
       0.000  0.000  1.000
     occupation matrix ns (before diag.):
       0.667  0.000  0.000
       0.000  0.667  0.000
       0.000  0.000  0.667

     Number of occupied Hubbard levels =   24.0000

     Atomic wfc used for Hubbard projectors are orthogonalized

     Starting wfcs are   26 randomized atomic wfcs +    6 random wfcs

     total cpu time spent up to now is        0.4 secs

     Self-consistent Calculation

     iteration #  1     ecut=    55.00 Ry     beta= 0.30
     Davidson diagonalization with overlap
     ethr =  1.00E-02,  avg # of iterations =  7.7

     =================== HUBBARD OCCUPATIONS ===================
     ------------------------ ATOM    1 ------------------------
     Tr[ns(  1)] (up, down, total) =   4.80379  3.68147  8.48527
     Atomic magnetic moment for atom   1 =   1.12232
     SPIN  1
     eigenvalues:
       0.947  0.947  0.947  0.981  0.981
     eigenvectors (columns):
      -0.000 -0.000 -0.000 -0.483  0.875
      -0.274 -0.836 -0.475 -0.000 -0.000
      -0.584 -0.248  0.773 -0.000 -0.000
       0.000  0.000  0.000 -0.875 -0.483
       0.764 -0.490  0.421  0.000  0.000
     occupation matrix ns (before diag.):
       0.981 -0.000 -0.000 -0.000  0.000
      -0.000  0.947 -0.000  0.000  0.000
      -0.000 -0.000  0.947  0.000  0.000
      -0.000  0.000  0.000  0.981 -0.000
       0.000  0.000  0.000 -0.000  0.947
     SPIN  2
     eigenvalues:
       0.598  0.598  0.598  0.944  0.944
     eigenvectors (columns):
      -0.000 -0.000  0.000 -0.427  0.904
      -0.263 -0.936  0.234 -0.000 -0.000
      -0.594 -0.034 -0.804 -0.000 -0.000
       0.000  0.000 -0.000 -0.904 -0.427
       0.760 -0.351 -0.547  0.000  0.000
     occupation matrix ns (before diag.):
       0.944 -0.000 -0.000 -0.000  0.000
      -0.000  0.598 -0.000  0.000  0.000
      -0.000 -0.000  0.598  0.000  0.000
      -0.000  0.000  0.000  0.944 -0.000
       0.000  0.000  0.000 -0.000  0.598
     ------------------------ ATOM    2 ------------------------
     Tr[ns(  2)] (up, down, total) =   3.68145  4.80372  8.48517
     Atomic magnetic moment for atom   2 =  -1.12227
     SPIN  1
     eigenvalues:
       0.598  0.598  0.598  0.944  0.944
     eigenvectors (columns):
      -0.000  0.000 -0.000 -0.370  0.929
      -0.255 -0.560 -0.789 -0.000 -0.000
      -0.582 -0.562  0.587 -0.000 -0.000
       0.000 -0.000  0.000 -0.929 -0.370
       0.772 -0.609  0.183  0.000  0.000
     occupation matrix ns (before diag.):
       0.944 -0.000 -0.000 -0.000  0.000
      -0.000  0.598 -0.000  0.000  0.000
      -0.000 -0.000  0.598  0.000  0.000
      -0.000  0.000  0.000  0.944 -0.000
       0.000  0.000  0.000 -0.000  0.598
     SPIN  2
     eigenvalues:
       0.947  0.947  0.947  0.981  0.981
     eigenvectors (columns):
      -0.000 -0.000  0.000 -0.530  0.848
      -0.281 -0.956  0.085 -0.000 -0.000
      -0.596  0.104 -0.796 -0.000 -0.000
       0.000  0.000 -0.000 -0.848 -0.530
       0.752 -0.274 -0.599  0.000  0.000
     occupation matrix ns (before diag.):
       0.981 -0.000 -0.000 -0.000  0.000
      -0.000  0.947 -0.000  0.000  0.000
      -0.000 -0.000  0.947  0.000  0.000
      -0.000  0.000  0.000  0.981 -0.000
       0.000  0.000  0.000 -0.000  0.947
     ------------------------ ATOM    3 ------------------------
     Tr[ns(  3)] (up, down, total) =   2.50986  2.50989  5.01976
     Atomic magnetic moment for atom   3 =  -0.00003
     SPIN  1
     eigenvalues:
       0.837  0.837  0.837
     eigenvectors (columns):
       0.833 -0.251  0.493
       0.529  0.104 -0.842
       0.160  0.962  0.220
     occupation matrix ns (before diag.):
       0.837 -0.000  0.000
      -0.000  0.837 -0.000
       0.000 -0.000  0.837
     SPIN  2
     eigenvalues:
       0.837  0.837  0.837
     eigenvectors (columns):
       0.530  0.568  0.630
       0.634  0.227 -0.739
       0.563 -0.791  0.240
     occupation matrix ns (before diag.):
       0.837 -0.000  0.000
      -0.000  0.837 -0.000
       0.000 -0.000  0.837
     ------------------------ ATOM    4 ------------------------
     Tr[ns(  4)] (up, down, total) =   2.50986  2.50989  5.01976
     Atomic magnetic moment for atom   4 =  -0.00003
     SPIN  1
     eigenvalues:
       0.837  0.837  0.837
     eigenvectors (columns):
       0.580 -0.447  0.681
       0.760 -0.003 -0.650
       0.292  0.894  0.339
     occupation matrix ns (before diag.):
       0.837 -0.000  0.000
      -0.000  0.837 -0.000
       0.000 -0.000  0.837
     SPIN  2
     eigenvalues:
       0.837  0.837  0.837
     eigenvectors (columns):
       0.729 -0.355  0.585
       0.674  0.224 -0.704
       0.119  0.907  0.403
     occupation matrix ns (before diag.):
       0.837 -0.000  0.000
      -0.000  0.837 -0.000
       0.000 -0.000  0.837

     Number of occupied Hubbard levels =   27.0099

     total cpu time spent up to now is        0.8 secs

     total energy              =    -262.81724672 Ry
     estimated scf accuracy    <       0.36712683 Ry

     total magnetization       =     0.00 Bohr mag/cell
     absolute magnetization    =     2.40 Bohr mag/cell

     iteration #  2     ecut=    55.00 Ry     beta= 0.30
     Davidson diagonalization with overlap
     ethr =  1.15E-03,  avg # of iterations =  2.2

     total cpu time spent up to now is        1.1 secs

     total energy              =    -262.80841239 Ry
     estimated scf accuracy    <       0.09638205 Ry

     total magnetization       =     0.00 Bohr mag/cell
     absolute magnetization    =     2.20 Bohr mag/cell

     iteration #  3     ecut=    55.00 Ry     beta= 0.30
     Davidson diagonalization with overlap
     ethr =  3.01E-04,  avg # of iterations =  3.9

     total cpu time spent up to now is        1.4 secs

     total energy              =    -262.83193484 Ry
     estimated scf accuracy    <       0.01772234 Ry

     total magnetization       =     0.00 Bohr mag/cell
     absolute magnetization    =     1.96 Bohr mag/cell

     iteration #  4     ecut=    55.00 Ry     beta= 0.30
     Davidson diagonalization with overlap
     ethr =  5.54E-05,  avg # of iterations =  5.3

     total cpu time spent up to now is        1.7 secs

     total energy              =    -262.83732620 Ry
     estimated scf accuracy    <       0.01447467 Ry

     total magnetization       =     0.00 Bohr mag/cell
     absolute magnetization    =     2.01 Bohr mag/cell

     iteration #  5     ecut=    55.00 Ry     beta= 0.30
     Davidson diagonalization with overlap
     ethr =  4.52E-05,  avg # of iterations =  1.6

     total cpu time spent up to now is        1.9 secs

     total energy              =    -262.83917094 Ry
     estimated scf accuracy    <       0.00289460 Ry

     total magnetization       =     0.00 Bohr mag/cell
     absolute magnetization    =     1.94 Bohr mag/cell

     iteration #  6     ecut=    55.00 Ry     beta= 0.30
     Davidson diagonalization with overlap
     ethr =  9.05E-06,  avg # of iterations =  2.1

     total cpu time spent up to now is        2.2 secs

     total energy              =    -262.84000217 Ry
     estimated scf accuracy    <       0.00216706 Ry

     total magnetization       =     0.00 Bohr mag/cell
     absolute magnetization    =     1.82 Bohr mag/cell

     iteration #  7     ecut=    55.00 Ry     beta= 0.30
     Davidson diagonalization with overlap
     ethr =  6.77E-06,  avg # of iterations =  2.1

     total cpu time spent up to now is        2.4 secs

     total energy              =    -262.84042626 Ry
     estimated scf accuracy    <       0.00033670 Ry

     total magnetization       =     0.00 Bohr mag/cell
     absolute magnetization    =     1.78 Bohr mag/cell

     iteration #  8     ecut=    55.00 Ry     beta= 0.30
     Davidson diagonalization with overlap
     ethr =  1.05E-06,  avg # of iterations =  4.4

     total cpu time spent up to now is        2.7 secs

     total energy              =    -262.84041826 Ry
     estimated scf accuracy    <       0.00045097 Ry

     total magnetization       =     0.00 Bohr mag/cell
     absolute magnetization    =     1.73 Bohr mag/cell

     iteration #  9     ecut=    55.00 Ry     beta= 0.30
     Davidson diagonalization with overlap
     ethr =  1.05E-06,  avg # of iterations =  1.3

     total cpu time spent up to now is        2.9 secs

     total energy              =    -262.84060500 Ry
     estimated scf accuracy    <       0.00000326 Ry

     total magnetization       =    -0.00 Bohr mag/cell
     absolute magnetization    =     1.68 Bohr mag/cell

     iteration # 10     ecut=    55.00 Ry     beta= 0.30
     Davidson diagonalization with overlap
     ethr =  1.02E-08,  avg # of iterations =  4.2

     total cpu time spent up to now is        3.3 secs

     total energy              =    -262.84061158 Ry
     estimated scf accuracy    <       0.00000157 Ry

     total magnetization       =    -0.00 Bohr mag/cell
     absolute magnetization    =     1.67 Bohr mag/cell

     iteration # 11     ecut=    55.00 Ry     beta= 0.30
     Davidson diagonalization with overlap
     ethr =  4.90E-09,  avg # of iterations =  1.4

     total cpu time spent up to now is        3.5 secs

     total energy              =    -262.84061182 Ry
     estimated scf accuracy    <       0.00000032 Ry

     total magnetization       =    -0.00 Bohr mag/cell
     absolute magnetization    =     1.67 Bohr mag/cell

     iteration # 12     ecut=    55.00 Ry     beta= 0.30
     Davidson diagonalization with overlap
     ethr =  9.85E-10,  avg # of iterations =  2.1

     total cpu time spent up to now is        3.8 secs

     total energy              =    -262.84061204 Ry
     estimated scf accuracy    <          3.5E-09 Ry

     total magnetization       =    -0.00 Bohr mag/cell
     absolute magnetization    =     1.67 Bohr mag/cell

     iteration # 13     ecut=    55.00 Ry     beta= 0.30
     Davidson diagonalization with overlap
     ethr =  1.11E-11,  avg # of iterations =  4.2

     total cpu time spent up to now is        4.1 secs

     total energy              =    -262.84061205 Ry
     estimated scf accuracy    <          3.6E-09 Ry

     total magnetization       =     0.00 Bohr mag/cell
     absolute magnetization    =     1.67 Bohr mag/cell

     iteration # 14     ecut=    55.00 Ry     beta= 0.30
     Davidson diagonalization with overlap
     ethr =  1.11E-11,  avg # of iterations =  1.4

     total cpu time spent up to now is        4.3 secs

     total energy              =    -262.84061205 Ry
     estimated scf accuracy    <          1.0E-09 Ry

     total magnetization       =    -0.00 Bohr mag/cell
     absolute magnetization    =     1.67 Bohr mag/cell

     iteration # 15     ecut=    55.00 Ry     beta= 0.30
     Davidson diagonalization with overlap
     ethr =  3.20E-12,  avg # of iterations =  2.0

     Magnetic moment per site  (integrated on atomic sphere of radius R)
     atom   1 (R=0.179)  charge=  7.4954  magn=  0.7675
     atom   2 (R=0.179)  charge=  7.4955  magn= -0.7675
     atom   3 (R=0.179)  charge=  5.5109  magn= -0.0000
     atom   4 (R=0.179)  charge=  5.5109  magn= -0.0000

     total cpu time spent up to now is        4.6 secs

     End of self-consistent calculation

     =================== HUBBARD OCCUPATIONS ===================
     ------------------------ ATOM    1 ------------------------
     Tr[ns(  1)] (up, down, total) =   4.67629  3.89690  8.57319
     Atomic magnetic moment for atom   1 =   0.77938
     SPIN  1
     eigenvalues:
       0.908  0.908  0.908  0.975  0.975
     eigenvectors (columns):
      -0.000 -0.000 -0.000 -0.310  0.951
      -0.277 -0.885 -0.373 -0.000 -0.000
      -0.600 -0.143  0.787 -0.000 -0.000
       0.000  0.000  0.000 -0.951 -0.310
       0.750 -0.442  0.492  0.000  0.000
     occupation matrix ns (before diag.):
       0.975 -0.000 -0.000 -0.000  0.000
      -0.000  0.908 -0.000  0.000  0.000
      -0.000 -0.000  0.908  0.000  0.000
      -0.000  0.000  0.000  0.975 -0.000
       0.000  0.000  0.000 -0.000  0.908
     SPIN  2
     eigenvalues:
       0.658  0.658  0.658  0.961  0.961
     eigenvectors (columns):
      -0.000  0.000  0.000 -0.284  0.959
      -0.258  0.938  0.232 -0.000 -0.000
      -0.594  0.036 -0.804 -0.000 -0.000
       0.000 -0.000 -0.000 -0.959 -0.284
       0.762  0.345 -0.548  0.000  0.000
     occupation matrix ns (before diag.):
       0.961 -0.000 -0.000 -0.000  0.000
      -0.000  0.658 -0.000  0.000  0.000
      -0.000 -0.000  0.658  0.000  0.000
      -0.000  0.000  0.000  0.961 -0.000
       0.000  0.000  0.000 -0.000  0.658
     ------------------------ ATOM    2 ------------------------
     Tr[ns(  2)] (up, down, total) =   3.89691  4.67629  8.57319
     Atomic magnetic moment for atom   2 =  -0.77938
     SPIN  1
     eigenvalues:
       0.658  0.658  0.658  0.961  0.961
     eigenvectors (columns):
      -0.000 -0.000 -0.000 -0.392  0.920
      -0.274 -0.799 -0.535 -0.000 -0.000
      -0.605 -0.289  0.742 -0.000 -0.000
       0.000  0.000  0.000 -0.920 -0.392
       0.748 -0.527  0.404  0.000  0.000
     occupation matrix ns (before diag.):
       0.961 -0.000 -0.000 -0.000  0.000
      -0.000  0.658 -0.000  0.000  0.000
      -0.000 -0.000  0.658  0.000  0.000
      -0.000  0.000  0.000  0.961 -0.000
       0.000  0.000  0.000 -0.000  0.658
     SPIN  2
     eigenvalues:
       0.908  0.908  0.908  0.975  0.975
     eigenvectors (columns):
      -0.000 -0.000  0.000 -0.430  0.903
      -0.267 -0.959  0.094 -0.000 -0.000
      -0.609  0.092 -0.788 -0.000 -0.000
       0.000  0.000 -0.000 -0.903 -0.430
       0.747 -0.267 -0.609  0.000  0.000
     occupation matrix ns (before diag.):
       0.975 -0.000 -0.000 -0.000  0.000
      -0.000  0.908 -0.000  0.000  0.000
      -0.000 -0.000  0.908  0.000  0.000
      -0.000  0.000  0.000  0.975 -0.000
       0.000  0.000  0.000 -0.000  0.908
     ------------------------ ATOM    3 ------------------------
     Tr[ns(  3)] (up, down, total) =   2.42609  2.42609  4.85217
     Atomic magnetic moment for atom   3 =   0.00000
     SPIN  1
     eigenvalues:
       0.809  0.809  0.809
     eigenvectors (columns):
       0.360 -0.705  0.611
       0.558 -0.362 -0.747
       0.747  0.610  0.263
     occupation matrix ns (before diag.):
       0.809 -0.000  0.000
      -0.000  0.809 -0.000
       0.000 -0.000  0.809
     SPIN  2
     eigenvalues:
       0.809  0.809  0.809
     eigenvectors (columns):
       0.806 -0.285  0.520
       0.578  0.187 -0.794
       0.129  0.940  0.315
     occupation matrix ns (before diag.):
       0.809 -0.000  0.000
      -0.000  0.809 -0.000
       0.000 -0.000  0.809
     ------------------------ ATOM    4 ------------------------
     Tr[ns(  4)] (up, down, total) =   2.42609  2.42609  4.85217
     Atomic magnetic moment for atom   4 =   0.00000
     SPIN  1
     eigenvalues:
       0.809  0.809  0.809
     eigenvectors (columns):
      -0.580 -0.567  0.585
      -0.609 -0.176 -0.774
      -0.542  0.805  0.243
     occupation matrix ns (before diag.):
       0.809 -0.000  0.000
      -0.000  0.809 -0.000
       0.000 -0.000  0.809
     SPIN  2
     eigenvalues:
       0.809  0.809  0.809
     eigenvectors (columns):
       0.839 -0.216  0.499
       0.538  0.187 -0.822
       0.084  0.958  0.273
     occupation matrix ns (before diag.):
       0.809 -0.000  0.000
      -0.000  0.809 -0.000
       0.000 -0.000  0.809

     Number of occupied Hubbard levels =   26.8507

 ------ SPIN UP ------------


          k = 0.0000 0.0000 0.0000 (   869 PWs)   bands (ev):

     0.4484  10.0180  12.7822  12.7822  12.7822  19.2209  19.2209  22.5344
    22.5344  22.5344  26.3835  26.3835  26.3835  27.5118  27.5118  31.0017
    31.0017  31.0017  38.6275  38.6275  38.6275  39.1689  50.1555  50.1555
    60.1405  63.7280  63.7280  63.7280  64.8712  64.8712  64.8712  73.2334

          k =-0.2500 0.2500-0.2500 (   827 PWs)   bands (ev):

     1.6206   7.0078  13.8188  13.8188  16.9774  18.2575  18.2575  19.9531
    22.7961  22.7961  25.7139  25.7139  26.5360  26.9886  26.9886  28.4836
    30.1364  30.1364  40.6940  41.0544  42.5434  42.5434  50.5961  50.5961
    58.9058  60.7640  60.7640  61.8361  62.2760  62.2760  66.1686  70.0468

          k = 0.5000-0.5000 0.5000 (   832 PWs)   bands (ev):

     4.1371   4.2271  15.9993  15.9993  16.4269  16.4269  18.6979  18.8845
    22.9192  22.9192  23.8248  23.8248  25.8300  27.6424  27.9785  27.9785
    29.3870  29.3870  42.0169  42.1542  49.2457  49.2457  49.2757  49.2757
    57.3957  57.3957  57.4720  57.4720  57.9442  57.9565  75.2931  75.3087

          k = 0.0000 0.5000 0.0000 (   833 PWs)   bands (ev):

     2.0134   6.6910  13.9374  13.9374  15.4847  18.4435  19.8038  20.7749
    20.7749  23.6031  24.5099  26.4921  26.9625  26.9625  27.4526  28.9454
    28.9454  30.1524  40.0305  41.1462  43.9543  43.9543  48.9281  50.3573
    58.9614  58.9614  59.4232  64.1528  64.1528  65.1103  65.6507  65.7576

          k = 0.7500-0.2500 0.7500 (   822 PWs)   bands (ev):

     3.9603   5.0968  13.3091  14.7746  15.3894  18.3171  20.1859  21.1960
    21.2121  22.1113  25.0579  25.3200  25.8934  26.6909  27.1411  28.5024
    29.4357  29.9794  41.5516  43.0594  47.4450  47.7234  48.6986  50.2801
    52.9699  55.4871  57.6638  61.2007  62.7619  65.4861  67.5815  70.8449

          k = 0.5000 0.0000 0.5000 (   837 PWs)   bands (ev):

     3.1925   5.6059  13.5176  15.6184  15.9732  16.7591  20.3029  21.0022
    21.5072  22.9939  24.7161  25.3832  25.4404  25.7955  27.4005  28.5498
    29.2032  30.6257  42.3208  42.4390  45.3947  46.3415  49.5159  51.0714
    53.7255  56.5077  59.7110  61.2659  62.0796  65.1331  66.3546  68.0817

          k = 0.0000-1.0000 0.0000 (   806 PWs)   bands (ev):

     4.5043   5.2070  11.1171  15.4638  15.4638  19.5415  19.5415  20.4413
    20.8518  24.4700  24.5776  24.5776  25.9906  27.0867  27.3949  27.9031
    30.3446  30.3446  40.6303  43.3163  47.0972  47.4634  49.3160  49.3160
    54.6720  55.0427  55.0427  62.8861  64.3240  64.3240  68.2375  68.2375

          k =-0.5000-1.0000 0.0000 (   848 PWs)   bands (ev):

     4.8152   4.8152  12.8871  12.9119  17.3965  17.3965  20.5038  21.2414
    21.3418  21.4027  25.3990  25.3990  26.8808  26.9296  27.9314  28.5921
    28.5921  29.1120  42.9326  42.9931  46.1055  46.1055  52.2170  52.2612
    52.3008  52.3008  58.7363  58.7363  66.9427  67.1513  67.2167  67.2289

 ------ SPIN DOWN ----------


          k = 0.0000 0.0000 0.0000 (   869 PWs)   bands (ev):

     0.4484  10.0180  12.7822  12.7822  12.7822  19.2209  19.2209  22.5344
    22.5344  22.5344  26.3835  26.3835  26.3835  27.5118  27.5118  31.0017
    31.0017  31.0017  38.6275  38.6275  38.6275  39.1689  50.1555  50.1555
    60.1405  63.7280  63.7280  63.7280  64.8712  64.8712  64.8712  73.2334

          k =-0.2500 0.2500-0.2500 (   827 PWs)   bands (ev):

     1.6206   7.0078  13.8188  13.8188  16.9774  18.2575  18.2575  19.9531
    22.7961  22.7961  25.7139  25.7139  26.5360  26.9886  26.9886  28.4836
    30.1364  30.1364  40.6940  41.0544  42.5434  42.5434  50.5961  50.5961
    58.9058  60.7640  60.7640  61.8361  62.2760  62.2760  66.1686  70.0468

          k = 0.5000-0.5000 0.5000 (   832 PWs)   bands (ev):

     4.1371   4.2271  15.9993  15.9993  16.4269  16.4269  18.6979  18.8845
    22.9192  22.9192  23.8248  23.8248  25.8300  27.6424  27.9785  27.9785
    29.3870  29.3870  42.0169  42.1542  49.2457  49.2457  49.2757  49.2757
    57.3957  57.3957  57.4720  57.4720  57.9442  57.9565  75.2597  75.2775

          k = 0.0000 0.5000 0.0000 (   833 PWs)   bands (ev):

     2.0134   6.6910  13.9374  13.9374  15.4847  18.4435  19.8038  20.7749
    20.7749  23.6031  24.5099  26.4921  26.9625  26.9625  27.4526  28.9454
    28.9454  30.1524  40.0305  41.1462  43.9543  43.9543  48.9281  50.3573
    58.9614  58.9614  59.4232  64.1528  64.1528  65.1103  65.6507  65.7576

          k = 0.7500-0.2500 0.7500 (   822 PWs)   bands (ev):

     3.9603   5.0968  13.3092  14.7746  15.3894  18.3171  20.1859  21.1960
    21.2121  22.1113  25.0579  25.3200  25.8934  26.6909  27.1411  28.5024
    29.4357  29.9794  41.5516  43.0594  47.4450  47.7234  48.6986  50.2801
    52.9699  55.4871  57.6638  61.2007  62.7619  65.4861  67.5815  70.8440

          k = 0.5000 0.0000 0.5000 (   837 PWs)   bands (ev):

     3.1925   5.6059  13.5176  15.6184  15.9732  16.7591  20.3029  21.0022
    21.5072  22.9939  24.7161  25.3832  25.4404  25.7955  27.4005  28.5498
    29.2032  30.6257  42.3208  42.4390  45.3947  46.3415  49.5159  51.0714
    53.7255  56.5077  59.7110  61.2659  62.0796  65.1330  66.3546  68.0817

          k = 0.0000-1.0000 0.0000 (   806 PWs)   bands (ev):

     4.5043   5.2070  11.1172  15.4638  15.4638  19.5415  19.5415  20.4413
    20.8518  24.4700  24.5776  24.5776  25.9906  27.0867  27.3949  27.9031
    30.3446  30.3446  40.6303  43.3163  47.0972  47.4634  49.3160  49.3160
    54.6720  55.0427  55.0427  62.8861  64.3240  64.3240  68.2375  68.2375

          k =-0.5000-1.0000 0.0000 (   848 PWs)   bands (ev):

     4.8152   4.8152  12.8871  12.9119  17.3965  17.3965  20.5038  21.2414
    21.3418  21.4027  25.3990  25.3990  26.8808  26.9296  27.9314  28.5921
    28.5921  29.1120  42.9326  42.9931  46.1055  46.1055  52.2170  52.2612
    52.3007  52.3007  58.7363  58.7363  66.9427  67.1513  67.2167  67.2289

     highest occupied, lowest unoccupied level (ev):    31.0017   28.5921

!    total energy              =    -262.84061205 Ry
     estimated scf accuracy    <          1.0E-11 Ry

     The total energy is the sum of the following terms:
     one-electron contribution =      49.48753900 Ry
     hartree contribution      =      33.27356873 Ry
     xc contribution           =    -100.29922575 Ry
     ewald contribution        =    -246.06598117 Ry
     Hubbard energy            =       0.76348714 Ry

     total magnetization       =    -0.00 Bohr mag/cell
     absolute magnetization    =     1.67 Bohr mag/cell

     convergence has been achieved in  15 iterations

     Writing all to output data dir /Users/kirill/Documents/dft/volume/NiO_calibr/band_gap_U/out/NiO.save/ :
     XML data file, charge density, pseudopotentials, collected wavefunctions

     init_run     :      0.26s CPU      0.26s WALL (       1 calls)
     electrons    :      4.12s CPU      4.19s WALL (       1 calls)

     Called by init_run:
     wfcinit      :      0.06s CPU      0.07s WALL (       1 calls)
     potinit      :      0.02s CPU      0.02s WALL (       1 calls)
     hinit0       :      0.14s CPU      0.14s WALL (       1 calls)

     Called by electrons:
     c_bands      :      2.79s CPU      2.84s WALL (      15 calls)
     sum_band     :      0.85s CPU      0.86s WALL (      15 calls)
     v_of_rho     :      0.21s CPU      0.21s WALL (      16 calls)
     newd         :      0.26s CPU      0.26s WALL (      16 calls)
     mix_rho      :      0.02s CPU      0.02s WALL (      15 calls)

     Called by c_bands:
     init_us_2    :      0.02s CPU      0.02s WALL (     512 calls)
     cegterg      :      2.73s CPU      2.79s WALL (     240 calls)

     Called by *egterg:
     cdiaghg      :      0.72s CPU      0.73s WALL (     976 calls)
     h_psi        :      1.80s CPU      1.84s WALL (     992 calls)
     s_psi        :      0.04s CPU      0.04s WALL (    1008 calls)
     g_psi        :      0.00s CPU      0.00s WALL (     736 calls)

     Called by h_psi:
     h_psi:calbec :      0.06s CPU      0.06s WALL (     992 calls)
     vloc_psi     :      1.60s CPU      1.64s WALL (     992 calls)
                                        0.00s GPU  (     992 calls)
     add_vuspsi   :      0.04s CPU      0.04s WALL (     992 calls)
     vhpsi        :      0.09s CPU      0.09s WALL (     992 calls)

     General routines
     calbec       :      0.13s CPU      0.13s WALL (    2480 calls)
     fft          :      0.15s CPU      0.15s WALL (     394 calls)
     ffts         :      0.00s CPU      0.00s WALL (      62 calls)
     fftw         :      1.83s CPU      1.87s WALL (   44922 calls)
     interpolate  :      0.01s CPU      0.01s WALL (      32 calls)

     Parallel routines

     Hubbard U routines
     new_ns       :      0.02s CPU      0.02s WALL (      15 calls)
     vhpsi        :      0.09s CPU      0.09s WALL (     992 calls)

     PWSCF        :      4.50s CPU      4.59s WALL


   This run was terminated on:  17:28: 7  25Feb2026            

=------------------------------------------------------------------------------=
   JOB DONE.
=------------------------------------------------------------------------------=
