
     Program PWSCF v.7.5 starts on 18Mar2026 at 17:19:45 

     This program is part of the open-source Quantum ESPRESSO suite
     for quantum simulation of materials; please cite
         "P. Giannozzi et al., J. Phys.:Condens. Matter 21 395502 (2009);
         "P. Giannozzi et al., J. Phys.:Condens. Matter 29 465901 (2017);
         "P. Giannozzi et al., J. Chem. Phys. 152 154105 (2020);
          URL http://www.quantum-espresso.org", 
     in publications or presentations arising from this work. More details at
     http://www.quantum-espresso.org/quote

     Parallel version (MPI), running on     5 processors

     MPI processes distributed on     1 nodes
     0 MiB available memory on the printing compute node when the environment starts

     Reading input from NiO.scf.in
Warning: card &CELL ignored
Warning: card     CELL_DOFREE='IBRAV' ignored

     Current dimensions of program PWSCF are:
     Max number of different atomic species (ntypx) = 10
     Max number of k-points (npk) =  40000
     Max angular momentum in pseudopotentials (lmaxx) =  4
     file Ni.pbesol-n-rrkjus_psl.0.1.UPF: wavefunction(s)  3D renormalized
     file Ni.pbesol-n-rrkjus_psl.0.1.UPF: wavefunction(s)  3D renormalized

     R & G space division:  proc/nbgrp/npool/nimage =       5
     Subspace diagonalization in iterative solution of the eigenvalue problem:
     a serial algorithm will be used


     Parallelization info
     --------------------
     sticks:   dense  smooth     PW     G-vecs:    dense   smooth      PW
     Min         456     182     59                10884     2740     519
     Max         457     183     60                10885     2742     520
     Sum        2281     911    299                54423    13705    2599

     Using Slab Decomposition



     bravais-lattice index     =            5
     lattice parameter (alat)  =       9.7110  a.u.
     unit-cell volume          =     249.2909 (a.u.)^3
     number of atoms/cell      =            4
     number of atomic types    =            3
     number of electrons       =        32.00 (up:  16.00, down:  16.00)
     number of Kohn-Sham states=           32
     kinetic-energy cutoff     =      55.0000  Ry
     charge density cutoff     =     550.0000  Ry
     scf convergence threshold =      1.0E-09
     mixing beta               =       0.3000
     number of iterations used =            8  plain     mixing
     Exchange-correlation= PBESOL
                           (   1   4  10   8   0   0   0)
     Hubbard projectors: ortho-atomic
     Hubbard parameters of DFT+U (Dudarev formulation) in eV:
     U(Ni1-3d) =  8.0000
     U(Ni2-3d) =  8.0000

     Internal variables: lda_plus_u =T, lda_plus_u_kind = 0

     Internal variables: orbital_resolved =F, hub_pot_fix =F, apply_U = F

     celldm(1)=   9.711000  celldm(2)=   0.000000  celldm(3)=   0.000000
     celldm(4)=   0.833300  celldm(5)=   0.000000  celldm(6)=   0.000000

     crystal axes: (cart. coord. in units of alat)
               a(1) = (   0.288704  -0.166683   0.942797 )  
               a(2) = (   0.000000   0.333367   0.942797 )  
               a(3) = (  -0.288704  -0.166683   0.942797 )  

     reciprocal axes: (cart. coord. in units 2 pi/alat)
               b(1) = (  1.731878 -0.999900  0.353558 )  
               b(2) = (  0.000000  1.999800  0.353558 )  
               b(3) = ( -1.731878 -0.999900  0.353558 )  


     PseudoPot. # 1 for Ni read from file:
     /Users/kirill/Documents/dft/volume/NiO_calibr/band_gap_U/../../../pot/Ni.pbesol-n-rrkjus_psl.0.1.UPF
     MD5 check sum: 8a65ecc087b22b902f7e15bb4f925df7
     Pseudo is Ultrasoft + core correction, Zval = 10.0
     Generated using "atomic" code by A. Dal Corso  v.5.0.2 svn rev. 9415
     Using radial grid of 1195 points,  6 beta functions with: 
                l(1) =   0
                l(2) =   0
                l(3) =   1
                l(4) =   1
                l(5) =   2
                l(6) =   2
     Q(r) pseudized with 0 coefficients 


     PseudoPot. # 2 for Ni read from file:
     /Users/kirill/Documents/dft/volume/NiO_calibr/band_gap_U/../../../pot/Ni.pbesol-n-rrkjus_psl.0.1.UPF
     MD5 check sum: 8a65ecc087b22b902f7e15bb4f925df7
     Pseudo is Ultrasoft + core correction, Zval = 10.0
     Generated using "atomic" code by A. Dal Corso  v.5.0.2 svn rev. 9415
     Using radial grid of 1195 points,  6 beta functions with: 
                l(1) =   0
                l(2) =   0
                l(3) =   1
                l(4) =   1
                l(5) =   2
                l(6) =   2
     Q(r) pseudized with 0 coefficients 


     PseudoPot. # 3 for O  read from file:
     /Users/kirill/Documents/dft/volume/NiO_calibr/band_gap_U/../../../pot/O.pbesol-n-rrkjus_psl.1.0.0.UPF
     MD5 check sum: 69b2cf9905362d8720b1d83b4ba3171b
     Pseudo is Ultrasoft + core correction, Zval =  6.0
     Generated using &quot;atomic&quot; code by A. Dal Corso  v.6.3MaX
     Using radial grid of 1095 points,  4 beta functions with: 
                l(1) =   0
                l(2) =   0
                l(3) =   1
                l(4) =   1
     Q(r) pseudized with 0 coefficients 


     atomic species   valence    mass     pseudopotential
     Ni1              10.00    58.69340     Ni( 1.00)
     Ni2              10.00    58.69340     Ni( 1.00)
     O                 6.00    15.99900     O ( 1.00)

     Starting magnetic structure 
     atomic species   magnetization
     Ni1             0.100
     Ni2            -0.100
     O               0.000

     12 Sym. Ops., with inversion, found



   Cartesian axes

     site n.     atom                  positions (alat units)
         1        Ni1    tau(   1) = (   0.0000000   0.0000000   0.0000000  )
         2        Ni2    tau(   2) = (   0.0000000   0.6667333   0.4713986  )
         3        O      tau(   3) = (   0.2887040  -0.1666833   0.2356993  )
         4        O      tau(   4) = (  -0.2887040   0.1666833  -0.2356993  )

     number of k points=    32
                       cart. coord. in units 2pi/alat
        k(    1) = (   0.0000000   0.0000000   0.0000000), wk =   0.0046296
        k(    2) = (  -0.2886463  -0.1666500   0.0589263), wk =   0.0277778
        k(    3) = (  -0.5772925  -0.3333000   0.1178526), wk =   0.0277778
        k(    4) = (   0.8659388   0.4999500  -0.1767789), wk =   0.0138889
        k(    5) = (  -0.2886463   0.1666500   0.1178526), wk =   0.0277778
        k(    6) = (  -0.5772925  -0.0000000   0.1767789), wk =   0.0555556
        k(    7) = (   0.8659388   0.8332500  -0.1178526), wk =   0.0555556
        k(    8) = (   0.5772925   0.6666000  -0.0589263), wk =   0.0555556
        k(    9) = (   0.2886463   0.4999500   0.0000000), wk =   0.0277778
        k(   10) = (  -0.5772925   0.3333000   0.2357052), wk =   0.0277778
        k(   11) = (   0.8659388   1.1665500  -0.0589263), wk =   0.0555556
        k(   12) = (   0.5772925   0.9999000   0.0000000), wk =   0.0277778
        k(   13) = (   0.8659388  -0.4999500  -0.3535578), wk =   0.0138889
        k(   14) = (   0.0000000  -0.0000000   0.1767789), wk =   0.0092593
        k(   15) = (  -0.2886463  -0.1666500   0.2357052), wk =   0.0277778
        k(   16) = (   1.1545851   0.6666000  -0.0589263), wk =   0.0277778
        k(   17) = (   0.8659388   0.4999500   0.0000000), wk =   0.0277778
        k(   18) = (   0.5772925   0.3333000   0.0589263), wk =   0.0277778
        k(   19) = (  -0.2886463   0.1666500   0.2946315), wk =   0.0277778
        k(   20) = (   1.1545851   0.9999000   0.0000000), wk =   0.0555556
        k(   21) = (   0.8659388   0.8332500   0.0589263), wk =   0.0555556
        k(   22) = (   0.5772925   0.6666000   0.1178526), wk =   0.0555556
        k(   23) = (   1.1545851  -0.6666000  -0.2946315), wk =   0.0277778
        k(   24) = (   0.8659388  -0.8332500  -0.2357052), wk =   0.0555556
        k(   25) = (   0.5772925  -0.9999000  -0.1767789), wk =   0.0277778
        k(   26) = (   0.8659388  -0.4999500  -0.1767789), wk =   0.0277778
        k(   27) = (   0.0000000  -0.0000000   0.3535578), wk =   0.0092593
        k(   28) = (   1.4432314   0.8332500   0.0589263), wk =   0.0277778
        k(   29) = (   1.1545851   0.6666000   0.1178526), wk =   0.0277778
        k(   30) = (   1.4432314  -0.8332500  -0.2357052), wk =   0.0277778
        k(   31) = (   1.1545851  -0.9999000  -0.1767789), wk =   0.0277778
        k(   32) = (   0.0000000   0.0000000  -0.5303367), wk =   0.0046296

     Dense  grid:    54423 G-vectors     FFT dimensions: (  75,  75,  75)

     Smooth grid:    13705 G-vectors     FFT dimensions: (  45,  45,  45)

     Estimated max dynamical RAM per process >      69.40 MB

     Estimated total dynamical RAM >     347.02 MB
     Generating pointlists ...
     new r_m :   0.1684 (alat units)  1.6355 (a.u.) for type    1
     new r_m :   0.1684 (alat units)  1.6355 (a.u.) for type    2
     new r_m :   0.1684 (alat units)  1.6355 (a.u.) for type    3

     Initial potential from superposition of free atoms

     starting charge      31.9995, renormalised to      32.0000

     STARTING HUBBARD OCCUPATIONS:

     =================== HUBBARD OCCUPATIONS ===================
     ------------------------ ATOM    1 ------------------------
     Tr[ns(  1)] (up, down, total) =   5.00000  3.00000  8.00000
     Atomic magnetic moment for atom   1 =   2.00000
     SPIN  1
     eigenvalues:
       1.000  1.000  1.000  1.000  1.000
     eigenvectors (columns):
       1.000  0.000  0.000  0.000  0.000
       0.000  1.000  0.000  0.000  0.000
       0.000  0.000  1.000  0.000  0.000
       0.000  0.000  0.000  1.000  0.000
       0.000  0.000  0.000  0.000  1.000
     occupation matrix ns (before diag.):
       1.000  0.000  0.000  0.000  0.000
       0.000  1.000  0.000  0.000  0.000
       0.000  0.000  1.000  0.000  0.000
       0.000  0.000  0.000  1.000  0.000
       0.000  0.000  0.000  0.000  1.000
     SPIN  2
     eigenvalues:
       0.600  0.600  0.600  0.600  0.600
     eigenvectors (columns):
       1.000  0.000  0.000  0.000  0.000
       0.000  1.000  0.000  0.000  0.000
       0.000  0.000  1.000  0.000  0.000
       0.000  0.000  0.000  1.000  0.000
       0.000  0.000  0.000  0.000  1.000
     occupation matrix ns (before diag.):
       0.600  0.000  0.000  0.000  0.000
       0.000  0.600  0.000  0.000  0.000
       0.000  0.000  0.600  0.000  0.000
       0.000  0.000  0.000  0.600  0.000
       0.000  0.000  0.000  0.000  0.600
     ------------------------ ATOM    2 ------------------------
     Tr[ns(  2)] (up, down, total) =   3.00000  5.00000  8.00000
     Atomic magnetic moment for atom   2 =  -2.00000
     SPIN  1
     eigenvalues:
       0.600  0.600  0.600  0.600  0.600
     eigenvectors (columns):
       1.000  0.000  0.000  0.000  0.000
       0.000  1.000  0.000  0.000  0.000
       0.000  0.000  1.000  0.000  0.000
       0.000  0.000  0.000  1.000  0.000
       0.000  0.000  0.000  0.000  1.000
     occupation matrix ns (before diag.):
       0.600  0.000  0.000  0.000  0.000
       0.000  0.600  0.000  0.000  0.000
       0.000  0.000  0.600  0.000  0.000
       0.000  0.000  0.000  0.600  0.000
       0.000  0.000  0.000  0.000  0.600
     SPIN  2
     eigenvalues:
       1.000  1.000  1.000  1.000  1.000
     eigenvectors (columns):
       1.000  0.000  0.000  0.000  0.000
       0.000  1.000  0.000  0.000  0.000
       0.000  0.000  1.000  0.000  0.000
       0.000  0.000  0.000  1.000  0.000
       0.000  0.000  0.000  0.000  1.000
     occupation matrix ns (before diag.):
       1.000  0.000  0.000  0.000  0.000
       0.000  1.000  0.000  0.000  0.000
       0.000  0.000  1.000  0.000  0.000
       0.000  0.000  0.000  1.000  0.000
       0.000  0.000  0.000  0.000  1.000

     Number of occupied Hubbard levels =   16.0000

     Atomic wfc used for Hubbard projectors are orthogonalized

     Starting wfcs are   26 randomized atomic wfcs +    6 random wfcs

     total cpu time spent up to now is        1.5 secs

     Self-consistent Calculation

     iteration #  1     ecut=    55.00 Ry     beta= 0.30
     Davidson diagonalization with overlap
     ethr =  1.00E-02,  avg # of iterations =  6.1

     =================== HUBBARD OCCUPATIONS ===================
     ------------------------ ATOM    1 ------------------------
     Tr[ns(  1)] (up, down, total) =   4.94092  3.61557  8.55648
     Atomic magnetic moment for atom   1 =   1.32535
     SPIN  1
     eigenvalues:
       0.977  0.977  0.996  0.996  0.996
     eigenvectors (columns):
      -0.000 -0.000  0.000 -0.000 -1.000
       0.689 -0.425  0.136 -0.571  0.000
       0.425  0.689  0.571  0.136  0.000
       0.308  0.499 -0.788 -0.188 -0.000
       0.499 -0.308 -0.188  0.788 -0.000
     occupation matrix ns (before diag.):
       0.996  0.000  0.000  0.000  0.000
       0.000  0.983  0.000 -0.000 -0.009
       0.000  0.000  0.983 -0.009 -0.000
       0.000 -0.000 -0.009  0.989 -0.000
       0.000 -0.009 -0.000 -0.000  0.989
     SPIN  2
     eigenvalues:
       0.335  0.335  0.981  0.981  0.982
     eigenvectors (columns):
       0.000  0.000 -0.000 -0.000  1.000
      -0.745  0.360 -0.144 -0.543 -0.000
      -0.360 -0.745 -0.543  0.144 -0.000
      -0.244 -0.506  0.800 -0.212  0.000
      -0.506  0.244  0.212  0.800  0.000
     occupation matrix ns (before diag.):
       0.982  0.000 -0.000  0.000  0.000
       0.000  0.539  0.000 -0.000 -0.300
      -0.000  0.000  0.539 -0.300  0.000
       0.000 -0.000 -0.300  0.778 -0.000
       0.000 -0.300  0.000 -0.000  0.778
     ------------------------ ATOM    2 ------------------------
     Tr[ns(  2)] (up, down, total) =   3.61567  4.94092  8.55659
     Atomic magnetic moment for atom   2 =  -1.32526
     SPIN  1
     eigenvalues:
       0.335  0.335  0.981  0.981  0.982
     eigenvectors (columns):
      -0.000 -0.000 -0.000 -0.000  1.000
       0.745 -0.359 -0.144 -0.543 -0.000
       0.359  0.745 -0.543  0.144 -0.000
       0.244  0.506  0.800 -0.212  0.000
       0.506 -0.244  0.212  0.800  0.000
     occupation matrix ns (before diag.):
       0.982  0.000 -0.000  0.000  0.000
       0.000  0.539  0.000 -0.000 -0.300
      -0.000  0.000  0.539 -0.300  0.000
       0.000 -0.000 -0.300  0.778 -0.000
       0.000 -0.300  0.000 -0.000  0.778
     SPIN  2
     eigenvalues:
       0.977  0.977  0.996  0.996  0.996
     eigenvectors (columns):
      -0.000 -0.000  0.000 -0.000 -1.000
       0.689 -0.425  0.136 -0.571  0.000
       0.425  0.689  0.571  0.136  0.000
       0.308  0.499 -0.788 -0.187 -0.000
       0.499 -0.308 -0.187  0.788 -0.000
     occupation matrix ns (before diag.):
       0.996  0.000  0.000  0.000  0.000
       0.000  0.983  0.000 -0.000 -0.009
       0.000  0.000  0.983 -0.009 -0.000
       0.000 -0.000 -0.009  0.989 -0.000
       0.000 -0.009 -0.000 -0.000  0.989

     Number of occupied Hubbard levels =   17.1131

     Threshold (ethr) on eigenvalues was too large:
     Diagonalizing with lowered threshold

     Davidson diagonalization with overlap
     ethr =  9.28E-04,  avg # of iterations =  1.6

     total cpu time spent up to now is        8.0 secs

     total energy              =    -264.64086584 Ry
     estimated scf accuracy    <       0.29225522 Ry

     total magnetization       =     0.00 Bohr mag/cell
     absolute magnetization    =     2.86 Bohr mag/cell

     iteration #  2     ecut=    55.00 Ry     beta= 0.30
     Davidson diagonalization with overlap
     ethr =  9.13E-04,  avg # of iterations =  2.0

     total cpu time spent up to now is       10.6 secs

     total energy              =    -264.73064497 Ry
     estimated scf accuracy    <       0.27659496 Ry

     total magnetization       =     0.00 Bohr mag/cell
     absolute magnetization    =     3.46 Bohr mag/cell

     iteration #  3     ecut=    55.00 Ry     beta= 0.30
     Davidson diagonalization with overlap
     ethr =  8.64E-04,  avg # of iterations =  1.2

     total cpu time spent up to now is       13.3 secs

     total energy              =    -264.76615588 Ry
     estimated scf accuracy    <       0.11462026 Ry

     total magnetization       =     0.00 Bohr mag/cell
     absolute magnetization    =     3.42 Bohr mag/cell

     iteration #  4     ecut=    55.00 Ry     beta= 0.30
     Davidson diagonalization with overlap
     ethr =  3.58E-04,  avg # of iterations =  1.8

     total cpu time spent up to now is       16.1 secs

     total energy              =    -264.78968066 Ry
     estimated scf accuracy    <       0.03787812 Ry

     total magnetization       =     0.00 Bohr mag/cell
     absolute magnetization    =     3.49 Bohr mag/cell

     iteration #  5     ecut=    55.00 Ry     beta= 0.30
     Davidson diagonalization with overlap
     ethr =  1.18E-04,  avg # of iterations =  2.5

     total cpu time spent up to now is       18.9 secs

     total energy              =    -264.79462595 Ry
     estimated scf accuracy    <       0.00549567 Ry

     total magnetization       =    -0.00 Bohr mag/cell
     absolute magnetization    =     3.63 Bohr mag/cell

     iteration #  6     ecut=    55.00 Ry     beta= 0.30
     Davidson diagonalization with overlap
     c_bands:  1 eigenvalues not converged
     c_bands:  1 eigenvalues not converged
     c_bands:  1 eigenvalues not converged
     c_bands:  1 eigenvalues not converged
     c_bands:  1 eigenvalues not converged
     ethr =  1.72E-05,  avg # of iterations =  9.2

     total cpu time spent up to now is       22.3 secs

     total energy              =    -264.79461621 Ry
     estimated scf accuracy    <       0.00126177 Ry

     total magnetization       =     0.00 Bohr mag/cell
     absolute magnetization    =     3.64 Bohr mag/cell

     iteration #  7     ecut=    55.00 Ry     beta= 0.30
     Davidson diagonalization with overlap
     c_bands:  1 eigenvalues not converged
     c_bands:  1 eigenvalues not converged
     c_bands:  1 eigenvalues not converged
     c_bands:  1 eigenvalues not converged
     ethr =  3.94E-06,  avg # of iterations =  6.6

     total cpu time spent up to now is       26.1 secs

     total energy              =    -264.79538387 Ry
     estimated scf accuracy    <       0.00137066 Ry

     total magnetization       =    -0.00 Bohr mag/cell
     absolute magnetization    =     3.66 Bohr mag/cell

     iteration #  8     ecut=    55.00 Ry     beta= 0.30
     Davidson diagonalization with overlap
     c_bands:  1 eigenvalues not converged
     ethr =  3.94E-06,  avg # of iterations =  2.0

     total cpu time spent up to now is       29.0 secs

     total energy              =    -264.79556837 Ry
     estimated scf accuracy    <       0.00002332 Ry

     total magnetization       =    -0.00 Bohr mag/cell
     absolute magnetization    =     3.65 Bohr mag/cell

     iteration #  9     ecut=    55.00 Ry     beta= 0.30
     Davidson diagonalization with overlap
     ethr =  7.29E-08,  avg # of iterations =  4.5

     total cpu time spent up to now is       32.3 secs

     total energy              =    -264.79558573 Ry
     estimated scf accuracy    <       0.00000698 Ry

     total magnetization       =     0.00 Bohr mag/cell
     absolute magnetization    =     3.65 Bohr mag/cell

     iteration # 10     ecut=    55.00 Ry     beta= 0.30
     Davidson diagonalization with overlap
     c_bands:  1 eigenvalues not converged
     ethr =  2.18E-08,  avg # of iterations =  2.0

     total cpu time spent up to now is       35.0 secs

     total energy              =    -264.79558297 Ry
     estimated scf accuracy    <       0.00000905 Ry

     total magnetization       =     0.00 Bohr mag/cell
     absolute magnetization    =     3.65 Bohr mag/cell

     iteration # 11     ecut=    55.00 Ry     beta= 0.30
     Davidson diagonalization with overlap
     ethr =  2.18E-08,  avg # of iterations =  2.2

     total cpu time spent up to now is       37.9 secs

     total energy              =    -264.79560070 Ry
     estimated scf accuracy    <       0.00000863 Ry

     total magnetization       =    -0.00 Bohr mag/cell
     absolute magnetization    =     3.65 Bohr mag/cell

     iteration # 12     ecut=    55.00 Ry     beta= 0.30
     Davidson diagonalization with overlap
     ethr =  2.18E-08,  avg # of iterations =  1.0

     total cpu time spent up to now is       40.4 secs

     total energy              =    -264.79560167 Ry
     estimated scf accuracy    <       0.00000105 Ry

     total magnetization       =     0.00 Bohr mag/cell
     absolute magnetization    =     3.65 Bohr mag/cell

     iteration # 13     ecut=    55.00 Ry     beta= 0.30
     Davidson diagonalization with overlap
     ethr =  3.29E-09,  avg # of iterations =  2.0

     total cpu time spent up to now is       43.2 secs

     total energy              =    -264.79560195 Ry
     estimated scf accuracy    <       0.00000008 Ry

     total magnetization       =    -0.00 Bohr mag/cell
     absolute magnetization    =     3.65 Bohr mag/cell

     iteration # 14     ecut=    55.00 Ry     beta= 0.30
     Davidson diagonalization with overlap
     ethr =  2.37E-10,  avg # of iterations =  2.8

     total cpu time spent up to now is       46.3 secs

     total energy              =    -264.79560197 Ry
     estimated scf accuracy    <       0.00000003 Ry

     total magnetization       =     0.00 Bohr mag/cell
     absolute magnetization    =     3.65 Bohr mag/cell

     iteration # 15     ecut=    55.00 Ry     beta= 0.30
     Davidson diagonalization with overlap
     ethr =  1.06E-10,  avg # of iterations =  1.9

     total cpu time spent up to now is       49.0 secs

     total energy              =    -264.79560198 Ry
     estimated scf accuracy    <          2.1E-09 Ry

     total magnetization       =     0.00 Bohr mag/cell
     absolute magnetization    =     3.65 Bohr mag/cell

     iteration # 16     ecut=    55.00 Ry     beta= 0.30
     Davidson diagonalization with overlap
     ethr =  6.41E-12,  avg # of iterations =  4.2

     Magnetic moment per site  (integrated on atomic sphere of radius R)
     atom   1 (R=0.168)  charge=  7.6725  magn=  1.7019
     atom   2 (R=0.168)  charge=  7.6724  magn= -1.7019
     atom   3 (R=0.168)  charge=  5.7273  magn=  0.0000
     atom   4 (R=0.168)  charge=  5.7273  magn=  0.0000

     total cpu time spent up to now is       52.7 secs

     End of self-consistent calculation

     =================== HUBBARD OCCUPATIONS ===================
     ------------------------ ATOM    1 ------------------------
     Tr[ns(  1)] (up, down, total) =   4.98198  3.24859  8.23056
     Atomic magnetic moment for atom   1 =   1.73339
     SPIN  1
     eigenvalues:
       0.995  0.995  0.997  0.997  0.997
     eigenvectors (columns):
      -0.000  0.000 -1.000  0.000  0.000
       0.698  0.417 -0.000 -0.136 -0.566
       0.417 -0.698 -0.000 -0.566  0.136
       0.298 -0.500  0.000  0.791 -0.190
       0.500  0.298  0.000  0.190  0.791
     occupation matrix ns (before diag.):
       0.997  0.000  0.000  0.000  0.000
       0.000  0.996  0.000 -0.000 -0.001
       0.000  0.000  0.996 -0.001 -0.000
       0.000 -0.000 -0.001  0.997 -0.000
       0.000 -0.001 -0.000 -0.000  0.997
     SPIN  2
     eigenvalues:
       0.132  0.132  0.995  0.995  0.995
     eigenvectors (columns):
      -0.000 -0.000 -0.000 -0.000  1.000
       0.714 -0.397 -0.138 -0.561 -0.000
       0.397  0.714 -0.561  0.138 -0.000
       0.281  0.505  0.793 -0.195  0.000
       0.505 -0.281  0.195  0.793  0.000
     occupation matrix ns (before diag.):
       0.995 -0.000 -0.000  0.000  0.000
      -0.000  0.420 -0.000  0.000 -0.407
      -0.000 -0.000  0.420 -0.407  0.000
       0.000  0.000 -0.407  0.707 -0.000
       0.000 -0.407  0.000 -0.000  0.707
     ------------------------ ATOM    2 ------------------------
     Tr[ns(  2)] (up, down, total) =   3.24858  4.98198  8.23056
     Atomic magnetic moment for atom   2 =  -1.73339
     SPIN  1
     eigenvalues:
       0.132  0.132  0.995  0.995  0.995
     eigenvectors (columns):
      -0.000 -0.000 -0.000 -0.000  1.000
       0.713 -0.399 -0.138 -0.561 -0.000
       0.399  0.713 -0.561  0.138 -0.000
       0.282  0.504  0.793 -0.195  0.000
       0.504 -0.282  0.195  0.793  0.000
     occupation matrix ns (before diag.):
       0.995 -0.000 -0.000  0.000  0.000
      -0.000  0.420 -0.000  0.000 -0.407
      -0.000 -0.000  0.420 -0.407  0.000
       0.000  0.000 -0.407  0.707 -0.000
       0.000 -0.407  0.000 -0.000  0.707
     SPIN  2
     eigenvalues:
       0.995  0.995  0.997  0.997  0.997
     eigenvectors (columns):
      -0.000  0.000 -1.000  0.000  0.000
       0.698  0.417 -0.000 -0.136 -0.566
       0.417 -0.698 -0.000 -0.566  0.136
       0.298 -0.500  0.000  0.791 -0.190
       0.500  0.298  0.000  0.190  0.791
     occupation matrix ns (before diag.):
       0.997  0.000  0.000  0.000  0.000
       0.000  0.996  0.000 -0.000 -0.001
       0.000  0.000  0.996 -0.001 -0.000
       0.000 -0.000 -0.001  0.997 -0.000
       0.000 -0.001 -0.000 -0.000  0.997

     Number of occupied Hubbard levels =   16.4611

 ------ SPIN UP ------------


          k = 0.0000 0.0000 0.0000 (  1731 PWs)   bands (ev):

    -8.3014  -6.8321   2.2415   3.1178   3.1178   4.3110   4.3110   4.6689
     5.6748   5.6748   7.2755   9.0797   9.0797   9.0838   9.1554   9.1554
    12.9158  14.4751  14.4751  16.8208  21.5096  25.1423  25.1423  28.9458
    29.9573  29.9573  29.9584  32.2013  33.1984  33.2043  33.2043  36.7112

          k =-0.2886-0.1667 0.0589 (  1730 PWs)   bands (ev):

    -8.0125  -6.8105   2.6440   3.1954   3.2115   4.1058   4.3274   4.7409
     5.3648   5.7831   7.2074   7.6053   8.5705   8.5839   9.3685   9.4071
    13.9015  14.4319  14.8451  18.3569  21.0767  23.3964  25.7640  25.7871
    28.3427  28.5315  30.0522  32.8895  33.4096  34.7186  35.4523  35.6873

          k =-0.5773-0.3333 0.1179 (  1723 PWs)   bands (ev):

    -7.3705  -6.7531   2.9198   3.2814   3.4356   3.9327   4.5073   4.5675
     4.9131   5.9370   6.7039   7.3169   7.6465   8.0864   8.9492   9.4003
    14.0891  14.3763  17.2839  19.9153  20.6353  21.9464  22.9041  24.5245
    26.5937  27.0964  29.7331  31.0947  35.4372  36.2028  37.1006  39.1752

          k = 0.8659 0.5000-0.1768 (  1710 PWs)   bands (ev):

    -7.0067  -6.7180   2.9897   3.1871   3.2649   3.6758   4.5337   4.8250
     4.9656   5.9174   6.6229   7.1560   7.6192   7.9539   8.6376   9.2969
    14.3233  14.3577  18.7215  18.9687  20.9845  21.1665  22.8697  22.8827
    26.5466  26.7606  30.1941  30.1950  37.6946  37.8474  39.1881  39.2468

          k =-0.2886 0.1667 0.1179 (  1731 PWs)   bands (ev):

    -7.9841  -6.8496   2.7545   3.1527   3.2146   4.0599   4.3321   4.7820
     5.3169   5.7952   7.1575   7.8441   8.1552   8.3277   9.5472   9.7126
    14.2391  14.3350  14.5998  18.2950  21.0972  23.5528  25.1670  25.9308
    28.7496  28.7524  31.1756  32.0976  32.5700  32.5728  36.2455  36.6775

          k =-0.5773-0.0000 0.1768 (  1720 PWs)   bands (ev):

    -7.4993  -6.8181   2.9609   3.2495   3.5689   3.8643   4.1842   4.8185
     5.0888   5.7720   6.9481   7.1503   7.8032   8.2556   9.0745   9.3829
    14.0496  14.3887  16.6991  19.5922  21.0303  22.3706  23.4120  24.9980
    25.8656  27.4603  30.4476  31.8928  34.6545  34.7054  35.7766  40.4285

          k = 0.8659 0.8333-0.1179 (  1709 PWs)   bands (ev):

    -7.0020  -6.7279   2.9651   3.2487   3.3269   4.0068   4.2300   4.5534
     5.3967   5.5994   6.7728   7.2377   7.4651   8.2277   8.4883   8.9385
    14.2031  14.4255  18.7896  20.2880  20.3446  21.8198  22.3912  22.5455
    25.6167  26.4103  30.7057  32.8258  33.6714  36.1564  39.6301  41.0933

          k = 0.5773 0.6666-0.0589 (  1723 PWs)   bands (ev):

    -6.9982  -6.7377   2.8590   3.3753   3.4481   4.0761   4.2093   4.4095
     5.3469   5.6847   6.8243   7.1589   7.4611   7.9123   8.5848   9.0777
    14.0942  14.6048  18.5596  19.6808  21.5669  21.7349  22.1402  22.7900
    25.2403  26.3240  31.8050  32.1750  34.6889  35.0215  37.0947  40.7800

          k = 0.2886 0.5000 0.0000 (  1709 PWs)   bands (ev):

    -7.5481  -6.7646   3.0121   3.2991   3.4330   3.8941   4.2352   4.8758
     4.9575   5.8215   7.0698   7.1679   7.4503   8.5469   8.8838   9.4594
    14.0614  14.4712  16.4365  20.2902  20.3421  22.3995  23.6783  24.9169
    25.6152  27.8449  31.1968  32.8260  33.6659  33.6737  35.0573  40.0864

          k =-0.5773 0.3333 0.2357 (  1707 PWs)   bands (ev):

    -7.2590  -6.8789   2.9761   3.2667   3.3499   3.6418   4.5677   4.6452
     5.2825   6.0515   6.3330   7.2765   7.5932   7.8330   9.4893   9.5481
    14.4269  14.4934  16.5036  18.3139  21.7176  22.1613  22.7321  26.2146
    26.2254  27.3013  28.7790  31.6718  34.4655  34.4693  39.0369  39.4323

          k = 0.8659 1.1666-0.0589 (  1713 PWs)   bands (ev):

    -6.9119  -6.8215   2.6952   3.2674   3.5467   3.7258   4.1654   4.9499
     5.3892   5.7892   6.5779   7.2269   7.3259   7.7352   9.0386   9.2762
    14.2625  14.6185  17.9586  18.4440  21.3595  21.9028  22.4958  23.8725
    25.8225  26.6172  29.4663  32.8775  35.0292  36.3742  37.9372  40.2510

          k = 0.5773 0.9999 0.0000 (  1718 PWs)   bands (ev):

    -6.7649  -6.7642   2.9777   3.3141   3.4406   3.8422   3.9818   4.7151
     5.2656   5.8503   6.9383   7.1808   7.1913   7.6389   8.6226   8.9525
    14.2991  14.4684  19.8762  20.3209  20.3436  20.6506  21.9479  22.4025
    25.6133  26.6247  31.0912  32.8250  33.6729  35.4417  39.1785  41.3315

          k = 0.8659-0.5000-0.3536 (  1708 PWs)   bands (ev):

    -6.8931  -6.8324   2.2416   3.2279   3.4986   3.8273   4.8041   4.8377
     5.1818   5.9155   6.1886   7.3204   7.6652   7.6680   9.2569   9.4101
    14.6174  14.7385  16.8224  17.3212  21.5109  22.0891  23.2660  25.1432
    25.1468  27.8462  27.8469  32.2028  36.7315  36.7349  37.8609  39.6180

          k = 0.0000-0.0000 0.1768 (  1740 PWs)   bands (ev):

    -8.2187  -6.9519   2.4524   3.1338   3.1338   4.3261   4.3261   4.6142
     5.6312   5.6312   7.2295   8.6341   8.7663   8.7663   9.5070   9.5070
    13.4705  14.4311  14.4311  16.7948  21.6165  25.4231  25.4231  27.2692
    29.7097  29.7097  30.8182  32.0155  32.6986  32.6986  34.2364  35.8752

          k =-0.2886-0.1667 0.2357 (  1727 PWs)   bands (ev):

    -7.8994  -6.9559   2.7139   3.2317   3.3385   4.1181   4.3454   4.7093
     5.2712   5.7024   7.0247   7.6296   8.8290   8.9649   9.0174   9.0216
    13.6703  14.5014  15.5636  18.1074  21.5425  23.4587  25.7400  26.0675
    27.2306  28.2137  28.2145  33.6780  34.6158  35.1671  35.2662  37.0235

          k = 1.1546 0.6666-0.0589 (  1714 PWs)   bands (ev):

    -7.3125  -6.8078   2.7413   3.2921   3.4113   3.9492   4.5328   4.5851
     5.0703   5.8586   6.5461   7.4820   7.9536   8.3783   8.6908   9.0825
    13.9162  14.4915  17.7000  19.3512  20.9696  22.3008  22.9674  23.8817
    26.2894  27.4521  28.1650  32.8834  34.2245  37.3953  38.6266  39.6094

          k = 0.8659 0.5000 0.0000 (  1703 PWs)   bands (ev):

    -6.9885  -6.7362   2.7251   3.2463   3.2558   3.8133   4.5912   4.8192
     5.0450   5.9789   6.4319   7.1658   7.6197   7.8900   8.8721   9.2844
    14.3935  14.4229  18.2275  18.3786  21.0989  21.7302  22.7306  23.5557
    25.9292  27.2993  28.7786  32.0967  36.2539  37.0763  39.0394  39.5643

          k = 0.5773 0.3333 0.0589 (  1712 PWs)   bands (ev):

    -7.3516  -6.7808   3.1871   3.2320   3.2690   3.7639   4.5595   4.5715
     5.0417   6.0353   6.6516   7.1518   7.5096   7.8577   9.3192   9.5877
    14.3427  14.3798  16.7124  19.0217  21.3577  22.1829  22.4836  25.7284
    26.5823  26.9960  29.7268  31.6180  33.6220  35.6170  37.1803  40.0135

          k =-0.2886 0.1667 0.2946 (  1725 PWs)   bands (ev):

    -7.8188  -7.0574   2.9294   3.2378   3.2662   4.0332   4.3555   4.8169
     5.1531   5.7230   7.0216   7.5502   8.2602   8.5177   9.2886   9.8223
    14.0684  14.3094  15.3878  17.9392  21.6864  23.8920  24.4855  26.4045
    26.8468  28.7006  30.8873  31.1616  32.2790  34.2022  36.3662  37.5243

          k = 1.1546 0.9999 0.0000 (  1714 PWs)   bands (ev):

    -7.3655  -6.9614   2.8648   3.2509   3.7078   3.8367   4.0721   4.8278
     5.2642   5.6614   6.7728   7.2770   8.0428   8.2397   8.9434   9.3855
    13.9946  14.3338  17.2816  18.7910  21.8035  22.5374  22.9044  24.5254
    26.4068  27.0734  29.7319  30.7042  36.1546  36.2014  37.0999  39.6259

          k = 0.8659 0.8333 0.0589 (  1711 PWs)   bands (ev):

    -6.9739  -6.7516   2.9360   3.1592   3.2722   3.8021   4.2527   4.9078
     5.2929   5.7520   6.6830   7.1563   7.5401   7.9738   8.8981   8.9839
    14.3240  14.3710  18.5680  19.1301  20.7539  21.6757  22.7811  22.9357
    25.9628  26.7304  29.5370  32.1849  35.1604  37.7907  38.6398  40.5385

          k = 0.5773 0.6666 0.1179 (  1716 PWs)   bands (ev):

    -6.9617  -6.7759   2.7572   3.3328   3.5902   3.8519   4.1291   4.7169
     5.3719   5.7724   6.7322   7.0844   7.4753   7.6646   8.8797   9.1903
    14.1267  14.7088  18.1095  18.9909  21.5466  21.9775  22.3222  23.4640
    25.5669  26.0749  30.6258  33.6773  34.6218  35.1777  36.3238  40.5737

          k = 1.1546-0.6666-0.2946 (  1714 PWs)   bands (ev):

    -7.1331  -7.0017   2.7889   3.2619   3.2772   3.7562   4.5843   4.6894
     5.5415   5.9640   6.0622   7.2061   8.0452   8.0593   9.2718   9.3210
    14.2452  14.5420  17.0591  17.9444  21.8485  22.0341  23.3333  25.0851
    26.0232  27.5407  28.0318  32.8003  33.7821  35.6602  39.6723  39.9770

          k = 0.8659-0.8333-0.2357 (  1703 PWs)   bands (ev):

    -6.9267  -6.8007   2.7486   3.2392   3.3603   3.7054   4.2361   5.1247
     5.2146   5.8498   6.5505   7.1848   7.5097   7.7543   9.0047   9.2604
    14.3353  14.4785  18.2727  18.3340  21.0988  21.7279  22.7291  23.5603
    25.9352  27.2952  28.7762  32.0941  36.2519  37.0804  39.0386  39.5706

          k = 0.5773-0.9999-0.1768 (  1712 PWs)   bands (ev):

    -6.7650  -6.7642   2.9846   3.2584   3.5337   3.7678   4.0112   4.7110
     5.2733   5.8511   6.9764   7.0374   7.3004   7.6314   8.6266   8.9489
    14.3065  14.4597  19.9332  20.1588  20.5030  20.5954  22.1473  22.1630
    26.0621  26.1643  31.7230  31.8307  34.6737  34.7743  39.9970  40.0384

          k = 0.8659-0.5000-0.1768 (  1711 PWs)   bands (ev):

    -6.9398  -6.7853   2.3782   3.2373   3.4070   3.8393   4.7687   4.8088
     5.1500   6.0701   6.1131   7.2613   7.6452   7.7468   9.2468   9.2644
    14.5528  14.5888  17.3016  17.6147  21.3993  22.0381  23.0763  24.5690
    25.3615  27.7084  28.0350  32.9819  35.2007  36.7949  38.8019  39.8799

          k = 0.0000-0.0000 0.3536 (  1735 PWs)   bands (ev):

    -7.9841  -7.2587   2.9694   3.1666   3.1666   4.3597   4.3597   4.4244
     5.5398   5.5398   7.1410   7.8849   8.5329   8.5329   9.8190   9.8190
    14.3421  14.3421  14.5996  16.5066  22.1537  25.1676  26.2197  26.2197
    28.7476  28.7476  31.1750  31.6676  32.5712  32.5712  34.4689  34.4689

          k = 1.4432 0.8333 0.0589 (  1719 PWs)   bands (ev):

    -7.6662  -7.2313   2.8361   3.2557   3.5504   4.0764   4.3706   4.7114
     5.1174   5.6302   6.8321   7.6733   8.5737   8.6501   9.1219   9.3701
    13.6862  14.4770  16.4272  17.4291  22.5332  23.8606  24.5212  25.5511
    26.7836  27.7303  28.6947  32.1908  34.5120  35.4026  36.0290  36.9186

          k = 1.1546 0.6666 0.1179 (  1724 PWs)   bands (ev):

    -7.1973  -6.9288   2.7006   3.2800   3.2902   3.8647   4.5937   4.6387
     5.4024   5.8699   6.2495   7.2706   8.3536   8.3661   8.7698   9.0376
    13.9766  14.5731  17.8343  18.1181  21.5341  22.3998  23.4633  23.8370
    26.0653  27.6046  27.6122  33.6743  34.6234  35.1787  39.6785  40.5647

          k = 1.4432-0.8333-0.2357 (  1714 PWs)   bands (ev):

    -7.5493  -7.3584   2.9226   3.2586   3.5416   4.0379   4.3760   4.7936
     5.0291   5.6388   6.8270   7.5221   8.3807   8.8448   8.9285   9.6904
    13.8618  14.3819  16.4259  17.2814  22.8989  23.6775  24.5216  24.9161
    27.0506  27.8595  29.7325  31.1958  33.6629  35.0575  36.1976  37.0980

          k = 1.1546-0.9999-0.1768 (  1714 PWs)   bands (ev):

    -7.2219  -7.1098   2.8221   3.2619   3.7348   3.8483   4.0171   4.8515
     5.3553   5.6023   6.7018   7.2853   8.1560   8.3260   8.8167   9.3759
    13.9755  14.3262  17.9574  18.0317  22.2991  22.4769  23.3634  23.4079
    26.8273  26.9766  29.8080  29.8292  37.2132  37.2286  38.0298  38.1411

          k = 0.0000 0.0000-0.5303 (  1720 PWs)   bands (ev):

    -7.6468  -7.6311   3.1834   3.1834   3.3545   4.2116   4.3787   4.3787
     5.4916   5.4916   7.0951   7.5509   8.4517   8.4517   9.9407   9.9407
    14.2971  14.2971  15.6654  15.7849  23.3100  23.4378  27.3357  27.3357
    27.4829  27.4829  31.3517  31.4131  33.2290  33.2290  33.3201  33.3201

 ------ SPIN DOWN ----------


          k = 0.0000 0.0000 0.0000 (  1731 PWs)   bands (ev):

    -8.3014  -6.8321   2.2415   3.1178   3.1178   4.3110   4.3110   4.6689
     5.6748   5.6748   7.2755   9.0797   9.0797   9.0838   9.1554   9.1554
    12.9158  14.4751  14.4751  16.8207  21.5096  25.1423  25.1423  28.9458
    29.9573  29.9573  29.9584  32.2013  33.1984  33.2043  33.2043  36.7113

          k =-0.2886-0.1667 0.0589 (  1730 PWs)   bands (ev):

    -8.0125  -6.8105   2.6440   3.1954   3.2115   4.1058   4.3274   4.7409
     5.3648   5.7831   7.2074   7.6053   8.5706   8.5840   9.3685   9.4071
    13.9015  14.4319  14.8451  18.3569  21.0768  23.3964  25.7640  25.7871
    28.3427  28.5315  30.0522  32.8895  33.4096  34.7186  35.4523  35.6873

          k =-0.5773-0.3333 0.1179 (  1723 PWs)   bands (ev):

    -7.3705  -6.7531   2.9198   3.2814   3.4355   3.9327   4.5073   4.5674
     4.9131   5.9370   6.7039   7.3169   7.6465   8.0864   8.9492   9.4003
    14.0891  14.3763  17.2839  19.9153  20.6353  21.9464  22.9041  24.5245
    26.5937  27.0964  29.7331  31.0947  35.4372  36.2028  37.1006  39.1751

          k = 0.8659 0.5000-0.1768 (  1710 PWs)   bands (ev):

    -7.0067  -6.7180   2.9897   3.1871   3.2649   3.6758   4.5337   4.8250
     4.9656   5.9174   6.6229   7.1560   7.6192   7.9539   8.6376   9.2969
    14.3233  14.3576  18.7215  18.9687  20.9845  21.1665  22.8697  22.8827
    26.5466  26.7606  30.1941  30.1950  37.6946  37.8474  39.1881  39.2468

          k =-0.2886 0.1667 0.1179 (  1731 PWs)   bands (ev):

    -7.9841  -6.8496   2.7545   3.1527   3.2146   4.0599   4.3321   4.7820
     5.3169   5.7952   7.1575   7.8441   8.1552   8.3277   9.5472   9.7126
    14.2391  14.3350  14.5998  18.2950  21.0972  23.5528  25.1669  25.9308
    28.7496  28.7524  31.1756  32.0976  32.5700  32.5728  36.2455  36.6775

          k =-0.5773-0.0000 0.1768 (  1720 PWs)   bands (ev):

    -7.4992  -6.8181   2.9609   3.2495   3.5689   3.8643   4.1842   4.8185
     5.0888   5.7720   6.9481   7.1503   7.8032   8.2556   9.0745   9.3829
    14.0496  14.3887  16.6991  19.5922  21.0303  22.3706  23.4120  24.9980
    25.8656  27.4603  30.4476  31.8928  34.6545  34.7054  35.7766  40.4329

          k = 0.8659 0.8333-0.1179 (  1709 PWs)   bands (ev):

    -7.0020  -6.7278   2.9651   3.2487   3.3268   4.0068   4.2300   4.5534
     5.3967   5.5994   6.7728   7.2377   7.4651   8.2277   8.4883   8.9385
    14.2031  14.4255  18.7896  20.2880  20.3446  21.8198  22.3912  22.5455
    25.6167  26.4103  30.7057  32.8257  33.6714  36.1564  39.6301  41.0945

          k = 0.5773 0.6666-0.0589 (  1723 PWs)   bands (ev):

    -6.9982  -6.7377   2.8589   3.3752   3.4481   4.0761   4.2093   4.4095
     5.3469   5.6847   6.8243   7.1589   7.4611   7.9123   8.5848   9.0777
    14.0942  14.6048  18.5596  19.6808  21.5669  21.7349  22.1402  22.7900
    25.2403  26.3240  31.8050  32.1750  34.6888  35.0215  37.0946  40.7799

          k = 0.2886 0.5000 0.0000 (  1709 PWs)   bands (ev):

    -7.5481  -6.7645   3.0120   3.2991   3.4330   3.8941   4.2352   4.8758
     4.9575   5.8215   7.0698   7.1679   7.4503   8.5469   8.8838   9.4594
    14.0614  14.4712  16.4365  20.2902  20.3421  22.3995  23.6782  24.9169
    25.6152  27.8449  31.1968  32.8260  33.6659  33.6737  35.0573  40.0864

          k =-0.5773 0.3333 0.2357 (  1707 PWs)   bands (ev):

    -7.2590  -6.8789   2.9761   3.2667   3.3499   3.6418   4.5677   4.6452
     5.2825   6.0515   6.3330   7.2765   7.5932   7.8330   9.4893   9.5481
    14.4269  14.4934  16.5036  18.3139  21.7176  22.1613  22.7321  26.2146
    26.2254  27.3013  28.7790  31.6718  34.4655  34.4693  39.0369  39.4323

          k = 0.8659 1.1666-0.0589 (  1713 PWs)   bands (ev):

    -6.9119  -6.8215   2.6952   3.2674   3.5467   3.7258   4.1654   4.9499
     5.3892   5.7892   6.5779   7.2269   7.3259   7.7352   9.0386   9.2762
    14.2625  14.6185  17.9586  18.4440  21.3595  21.9028  22.4958  23.8725
    25.8225  26.6172  29.4663  32.8775  35.0291  36.3742  37.9372  40.2498

          k = 0.5773 0.9999 0.0000 (  1718 PWs)   bands (ev):

    -6.7649  -6.7642   2.9777   3.3141   3.4406   3.8422   3.9818   4.7151
     5.2656   5.8503   6.9383   7.1808   7.1913   7.6389   8.6226   8.9525
    14.2991  14.4684  19.8762  20.3209  20.3436  20.6506  21.9479  22.4025
    25.6133  26.6247  31.0912  32.8250  33.6729  35.4417  39.1785  41.3279

          k = 0.8659-0.5000-0.3536 (  1708 PWs)   bands (ev):

    -6.8931  -6.8324   2.2416   3.2279   3.4986   3.8273   4.8041   4.8377
     5.1818   5.9155   6.1886   7.3204   7.6652   7.6680   9.2569   9.4101
    14.6174  14.7385  16.8224  17.3212  21.5109  22.0891  23.2660  25.1431
    25.1468  27.8462  27.8469  32.2028  36.7315  36.7349  37.8609  39.6181

          k = 0.0000-0.0000 0.1768 (  1740 PWs)   bands (ev):

    -8.2187  -6.9519   2.4524   3.1338   3.1338   4.3261   4.3261   4.6142
     5.6312   5.6312   7.2296   8.6341   8.7664   8.7664   9.5071   9.5071
    13.4705  14.4311  14.4311  16.7948  21.6165  25.4231  25.4231  27.2692
    29.7097  29.7097  30.8182  32.0155  32.6986  32.6986  34.2364  35.8752

          k =-0.2886-0.1667 0.2357 (  1727 PWs)   bands (ev):

    -7.8993  -6.9559   2.7139   3.2317   3.3385   4.1181   4.3454   4.7093
     5.2712   5.7024   7.0247   7.6296   8.8290   8.9650   9.0174   9.0216
    13.6703  14.5014  15.5637  18.1074  21.5425  23.4587  25.7400  26.0675
    27.2306  28.2136  28.2145  33.6780  34.6158  35.1671  35.2662  37.0246

          k = 1.1546 0.6666-0.0589 (  1714 PWs)   bands (ev):

    -7.3125  -6.8078   2.7413   3.2921   3.4113   3.9492   4.5328   4.5851
     5.0703   5.8586   6.5461   7.4820   7.9536   8.3783   8.6908   9.0825
    13.9162  14.4915  17.7000  19.3512  20.9696  22.3008  22.9674  23.8816
    26.2894  27.4521  28.1650  32.8834  34.2244  37.3953  38.6266  39.6094

          k = 0.8659 0.5000 0.0000 (  1703 PWs)   bands (ev):

    -6.9885  -6.7361   2.7251   3.2463   3.2558   3.8133   4.5912   4.8192
     5.0450   5.9789   6.4319   7.1658   7.6197   7.8900   8.8721   9.2844
    14.3935  14.4229  18.2275  18.3786  21.0989  21.7302  22.7306  23.5557
    25.9292  27.2993  28.7786  32.0967  36.2539  37.0762  39.0394  39.5643

          k = 0.5773 0.3333 0.0589 (  1712 PWs)   bands (ev):

    -7.3516  -6.7808   3.1871   3.2320   3.2690   3.7639   4.5595   4.5715
     5.0417   6.0353   6.6516   7.1518   7.5096   7.8577   9.3192   9.5877
    14.3427  14.3798  16.7124  19.0217  21.3577  22.1829  22.4836  25.7284
    26.5823  26.9960  29.7268  31.6179  33.6220  35.6169  37.1803  40.0134

          k =-0.2886 0.1667 0.2946 (  1725 PWs)   bands (ev):

    -7.8187  -7.0574   2.9294   3.2377   3.2662   4.0332   4.3554   4.8169
     5.1531   5.7230   7.0216   7.5502   8.2602   8.5178   9.2886   9.8223
    14.0684  14.3094  15.3878  17.9392  21.6864  23.8920  24.4855  26.4045
    26.8468  28.7006  30.8873  31.1616  32.2790  34.2022  36.3662  37.5245

          k = 1.1546 0.9999 0.0000 (  1714 PWs)   bands (ev):

    -7.3655  -6.9614   2.8648   3.2509   3.7078   3.8367   4.0721   4.8278
     5.2642   5.6614   6.7728   7.2770   8.0428   8.2397   8.9434   9.3855
    13.9946  14.3338  17.2816  18.7910  21.8035  22.5374  22.9044  24.5254
    26.4068  27.0734  29.7319  30.7042  36.1545  36.2014  37.0999  39.6259

          k = 0.8659 0.8333 0.0589 (  1711 PWs)   bands (ev):

    -6.9739  -6.7515   2.9360   3.1592   3.2722   3.8021   4.2527   4.9078
     5.2929   5.7520   6.6830   7.1563   7.5401   7.9738   8.8982   8.9839
    14.3240  14.3710  18.5680  19.1301  20.7539  21.6757  22.7811  22.9356
    25.9627  26.7304  29.5370  32.1849  35.1604  37.7907  38.6398  40.5387

          k = 0.5773 0.6666 0.1179 (  1716 PWs)   bands (ev):

    -6.9617  -6.7759   2.7572   3.3328   3.5902   3.8518   4.1291   4.7169
     5.3719   5.7724   6.7322   7.0844   7.4753   7.6646   8.8797   9.1903
    14.1267  14.7088  18.1095  18.9909  21.5466  21.9775  22.3222  23.4640
    25.5669  26.0749  30.6258  33.6772  34.6218  35.1777  36.3238  40.5737

          k = 1.1546-0.6666-0.2946 (  1714 PWs)   bands (ev):

    -7.1331  -7.0017   2.7889   3.2619   3.2771   3.7562   4.5843   4.6894
     5.5415   5.9640   6.0622   7.2061   8.0452   8.0593   9.2719   9.3210
    14.2452  14.5420  17.0591  17.9444  21.8485  22.0341  23.3333  25.0851
    26.0232  27.5407  28.0318  32.8002  33.7821  35.6602  39.6723  39.9770

          k = 0.8659-0.8333-0.2357 (  1703 PWs)   bands (ev):

    -6.9267  -6.8006   2.7486   3.2391   3.3602   3.7054   4.2361   5.1247
     5.2146   5.8498   6.5506   7.1848   7.5097   7.7543   9.0048   9.2604
    14.3353  14.4785  18.2727  18.3340  21.0988  21.7279  22.7291  23.5603
    25.9352  27.2952  28.7762  32.0941  36.2519  37.0803  39.0386  39.5706

          k = 0.5773-0.9999-0.1768 (  1712 PWs)   bands (ev):

    -6.7650  -6.7641   2.9846   3.2584   3.5336   3.7678   4.0111   4.7110
     5.2733   5.8511   6.9764   7.0374   7.3004   7.6315   8.6266   8.9489
    14.3065  14.4597  19.9332  20.1588  20.5030  20.5955  22.1473  22.1630
    26.0621  26.1643  31.7230  31.8307  34.6737  34.7743  39.9970  40.0384

          k = 0.8659-0.5000-0.1768 (  1711 PWs)   bands (ev):

    -6.9398  -6.7853   2.3782   3.2373   3.4070   3.8393   4.7687   4.8088
     5.1500   6.0701   6.1132   7.2613   7.6452   7.7468   9.2468   9.2644
    14.5528  14.5888  17.3016  17.6147  21.3993  22.0381  23.0763  24.5690
    25.3615  27.7084  28.0350  32.9819  35.2007  36.7949  38.8019  39.8802

          k = 0.0000-0.0000 0.3536 (  1735 PWs)   bands (ev):

    -7.9840  -7.2587   2.9694   3.1666   3.1666   4.3597   4.3597   4.4244
     5.5398   5.5398   7.1410   7.8849   8.5329   8.5329   9.8190   9.8190
    14.3421  14.3421  14.5996  16.5066  22.1537  25.1676  26.2197  26.2197
    28.7476  28.7476  31.1750  31.6676  32.5712  32.5712  34.4689  34.4689

          k = 1.4432 0.8333 0.0589 (  1719 PWs)   bands (ev):

    -7.6662  -7.2313   2.8360   3.2557   3.5504   4.0764   4.3706   4.7114
     5.1174   5.6302   6.8321   7.6733   8.5737   8.6502   9.1219   9.3702
    13.6861  14.4770  16.4272  17.4291  22.5332  23.8606  24.5212  25.5511
    26.7836  27.7303  28.6947  32.1908  34.5119  35.4026  36.0290  36.9185

          k = 1.1546 0.6666 0.1179 (  1724 PWs)   bands (ev):

    -7.1973  -6.9287   2.7006   3.2800   3.2902   3.8647   4.5937   4.6387
     5.4024   5.8700   6.2495   7.2706   8.3536   8.3661   8.7698   9.0376
    13.9766  14.5731  17.8343  18.1181  21.5341  22.3998  23.4633  23.8370
    26.0653  27.6046  27.6122  33.6743  34.6234  35.1787  39.6785  40.5647

          k = 1.4432-0.8333-0.2357 (  1714 PWs)   bands (ev):

    -7.5493  -7.3584   2.9226   3.2586   3.5416   4.0379   4.3759   4.7936
     5.0291   5.6388   6.8270   7.5221   8.3807   8.8448   8.9285   9.6904
    13.8618  14.3819  16.4259  17.2814  22.8989  23.6775  24.5215  24.9161
    27.0506  27.8595  29.7325  31.1958  33.6629  35.0575  36.1976  37.0980

          k = 1.1546-0.9999-0.1768 (  1714 PWs)   bands (ev):

    -7.2219  -7.1098   2.8221   3.2618   3.7348   3.8483   4.0171   4.8515
     5.3553   5.6023   6.7018   7.2853   8.1560   8.3260   8.8167   9.3760
    13.9755  14.3262  17.9575  18.0317  22.2991  22.4769  23.3633  23.4079
    26.8273  26.9766  29.8080  29.8292  37.2131  37.2286  38.0298  38.1411

          k = 0.0000 0.0000-0.5303 (  1720 PWs)   bands (ev):

    -7.6468  -7.6311   3.1834   3.1834   3.3545   4.2116   4.3786   4.3786
     5.4916   5.4916   7.0951   7.5509   8.4517   8.4517   9.9408   9.9408
    14.2971  14.2971  15.6654  15.7849  23.3100  23.4378  27.3357  27.3357
    27.4829  27.4829  31.3517  31.4131  33.2290  33.2290  33.3201  33.3201

     highest occupied, lowest unoccupied level (ev):     9.9408   12.9158

!    total energy              =    -264.79560198 Ry
     estimated scf accuracy    <          6.3E-10 Ry

     The total energy is the sum of the following terms:
     one-electron contribution =     -31.86859174 Ry
     hartree contribution      =      54.47892962 Ry
     xc contribution           =     -97.30632938 Ry
     ewald contribution        =    -190.25405801 Ry
     Hubbard energy            =       0.15444752 Ry

     total magnetization       =     0.00 Bohr mag/cell
     absolute magnetization    =     3.65 Bohr mag/cell

     convergence has been achieved in  16 iterations
     force_hub    :      0.75s CPU      0.77s WALL (       1 calls)
     dndtau       :      0.68s CPU      0.69s WALL (     768 calls)
     dprojdtau    :      0.16s CPU      0.17s WALL (    1536 calls)
     calc_doverla :      0.31s CPU      0.31s WALL (     768 calls)
     matel_dSdtau :      0.43s CPU      0.44s WALL (    1536 calls)

     Forces acting on atoms (cartesian axes, Ry/au):

     atom    1 type  1   force =    -0.00000000   -0.00000000   -0.00000000
     atom    2 type  2   force =     0.00000000    0.00000000    0.00000000
     atom    3 type  3   force =    -0.00000000   -0.00000000   -0.00000006
     atom    4 type  3   force =    -0.00000000    0.00000000    0.00000006

     Total force =     0.000000     Total SCF correction =     0.000000
     SCF correction compared to forces is large: reduce conv_thr to get better values

     Writing all to output data dir /Users/kirill/Documents/dft/volume/NiO_calibr/band_gap_U/out/NiO.save/ :
     XML data file, charge density, pseudopotentials, collected wavefunctions

     init_run     :      1.31s CPU      1.33s WALL (       1 calls)
     electrons    :     50.69s CPU     51.22s WALL (       1 calls)
     forces       :      0.91s CPU      0.93s WALL (       1 calls)

     Called by init_run:
     wfcinit      :      0.94s CPU      0.95s WALL (       1 calls)
     potinit      :      0.08s CPU      0.08s WALL (       1 calls)
     hinit0       :      0.18s CPU      0.19s WALL (       1 calls)

     Called by electrons:
     c_bands      :     40.24s CPU     40.67s WALL (      17 calls)
     sum_band     :      8.80s CPU      8.89s WALL (      17 calls)
     v_of_rho     :      0.95s CPU      0.95s WALL (      17 calls)
     newd         :      0.62s CPU      0.63s WALL (      17 calls)
     mix_rho      :      0.09s CPU      0.09s WALL (      17 calls)

     Called by c_bands:
     init_us_2    :      0.21s CPU      0.22s WALL (    2432 calls)
     cegterg      :     39.69s CPU     40.09s WALL (    1088 calls)

     Called by *egterg:
     cdiaghg      :      4.34s CPU      4.36s WALL (    4459 calls)
     h_psi        :     33.64s CPU     33.99s WALL (    4587 calls)
     s_psi        :      0.37s CPU      0.37s WALL (    4779 calls)
     g_psi        :      0.03s CPU      0.03s WALL (    3435 calls)

     Called by h_psi:
     h_psi:calbec :      0.58s CPU      0.60s WALL (    4587 calls)
     vloc_psi     :     32.05s CPU     32.37s WALL (    4587 calls)
                                        0.00s GPU  (    4587 calls)
     add_vuspsi   :      0.38s CPU      0.39s WALL (    4587 calls)
     vhpsi        :      0.59s CPU      0.60s WALL (    4587 calls)

     General routines
     calbec       :      1.66s CPU      1.69s WALL (   18006 calls)
     fft          :      0.57s CPU      0.57s WALL (     440 calls)
     ffts         :      0.02s CPU      0.02s WALL (      68 calls)
     fftw         :     36.96s CPU     37.30s WALL (  199900 calls)
     interpolate  :      0.05s CPU      0.05s WALL (      34 calls)

     Parallel routines

     Hubbard U routines
     new_ns       :      0.10s CPU      0.10s WALL (      17 calls)
     vhpsi        :      0.59s CPU      0.60s WALL (    4587 calls)
     force_hub    :      0.75s CPU      0.77s WALL (       1 calls)

     PWSCF        :     53.14s CPU     53.75s WALL


   This run was terminated on:  17:20:39  18Mar2026            

=------------------------------------------------------------------------------=
   JOB DONE.
=------------------------------------------------------------------------------=
