
     Program PWSCF v.7.5 starts on 18Mar2026 at 16:55:52 

     This program is part of the open-source Quantum ESPRESSO suite
     for quantum simulation of materials; please cite
         "P. Giannozzi et al., J. Phys.:Condens. Matter 21 395502 (2009);
         "P. Giannozzi et al., J. Phys.:Condens. Matter 29 465901 (2017);
         "P. Giannozzi et al., J. Chem. Phys. 152 154105 (2020);
          URL http://www.quantum-espresso.org", 
     in publications or presentations arising from this work. More details at
     http://www.quantum-espresso.org/quote

     Parallel version (MPI), running on     5 processors

     MPI processes distributed on     1 nodes
     0 MiB available memory on the printing compute node when the environment starts

     Reading input from NiO.scf.in
Warning: card &CELL ignored
Warning: card     CELL_DOFREE='IBRAV' ignored

     Current dimensions of program PWSCF are:
     Max number of different atomic species (ntypx) = 10
     Max number of k-points (npk) =  40000
     Max angular momentum in pseudopotentials (lmaxx) =  4
     file Ni.pbesol-n-rrkjus_psl.0.1.UPF: wavefunction(s)  3D renormalized
     file Ni.pbesol-n-rrkjus_psl.0.1.UPF: wavefunction(s)  3D renormalized

     R & G space division:  proc/nbgrp/npool/nimage =       5
     Subspace diagonalization in iterative solution of the eigenvalue problem:
     a serial algorithm will be used


     Parallelization info
     --------------------
     sticks:   dense  smooth     PW     G-vecs:    dense   smooth      PW
     Min         456     182     59                10884     2740     519
     Max         457     183     60                10885     2742     520
     Sum        2281     911    299                54423    13705    2599

     Using Slab Decomposition



     bravais-lattice index     =            5
     lattice parameter (alat)  =       9.7110  a.u.
     unit-cell volume          =     249.2909 (a.u.)^3
     number of atoms/cell      =            4
     number of atomic types    =            3
     number of electrons       =        32.00 (up:  16.00, down:  16.00)
     number of Kohn-Sham states=           32
     kinetic-energy cutoff     =      55.0000  Ry
     charge density cutoff     =     550.0000  Ry
     scf convergence threshold =      1.0E-09
     mixing beta               =       0.3000
     number of iterations used =            8  plain     mixing
     Exchange-correlation= PBESOL
                           (   1   4  10   8   0   0   0)
     Hubbard projectors: ortho-atomic
     Hubbard parameters of DFT+U (Dudarev formulation) in eV:
     U(Ni1-3d) =  5.0000
     U(Ni2-3d) =  5.0000

     Internal variables: lda_plus_u =T, lda_plus_u_kind = 0

     Internal variables: orbital_resolved =F, hub_pot_fix =F, apply_U = F

     celldm(1)=   9.711000  celldm(2)=   0.000000  celldm(3)=   0.000000
     celldm(4)=   0.833300  celldm(5)=   0.000000  celldm(6)=   0.000000

     crystal axes: (cart. coord. in units of alat)
               a(1) = (   0.288704  -0.166683   0.942797 )  
               a(2) = (   0.000000   0.333367   0.942797 )  
               a(3) = (  -0.288704  -0.166683   0.942797 )  

     reciprocal axes: (cart. coord. in units 2 pi/alat)
               b(1) = (  1.731878 -0.999900  0.353558 )  
               b(2) = (  0.000000  1.999800  0.353558 )  
               b(3) = ( -1.731878 -0.999900  0.353558 )  


     PseudoPot. # 1 for Ni read from file:
     /Users/kirill/Documents/dft/volume/NiO_calibr/band_gap_U/../../../pot/Ni.pbesol-n-rrkjus_psl.0.1.UPF
     MD5 check sum: 8a65ecc087b22b902f7e15bb4f925df7
     Pseudo is Ultrasoft + core correction, Zval = 10.0
     Generated using "atomic" code by A. Dal Corso  v.5.0.2 svn rev. 9415
     Using radial grid of 1195 points,  6 beta functions with: 
                l(1) =   0
                l(2) =   0
                l(3) =   1
                l(4) =   1
                l(5) =   2
                l(6) =   2
     Q(r) pseudized with 0 coefficients 


     PseudoPot. # 2 for Ni read from file:
     /Users/kirill/Documents/dft/volume/NiO_calibr/band_gap_U/../../../pot/Ni.pbesol-n-rrkjus_psl.0.1.UPF
     MD5 check sum: 8a65ecc087b22b902f7e15bb4f925df7
     Pseudo is Ultrasoft + core correction, Zval = 10.0
     Generated using "atomic" code by A. Dal Corso  v.5.0.2 svn rev. 9415
     Using radial grid of 1195 points,  6 beta functions with: 
                l(1) =   0
                l(2) =   0
                l(3) =   1
                l(4) =   1
                l(5) =   2
                l(6) =   2
     Q(r) pseudized with 0 coefficients 


     PseudoPot. # 3 for O  read from file:
     /Users/kirill/Documents/dft/volume/NiO_calibr/band_gap_U/../../../pot/O.pbesol-n-rrkjus_psl.1.0.0.UPF
     MD5 check sum: 69b2cf9905362d8720b1d83b4ba3171b
     Pseudo is Ultrasoft + core correction, Zval =  6.0
     Generated using &quot;atomic&quot; code by A. Dal Corso  v.6.3MaX
     Using radial grid of 1095 points,  4 beta functions with: 
                l(1) =   0
                l(2) =   0
                l(3) =   1
                l(4) =   1
     Q(r) pseudized with 0 coefficients 


     atomic species   valence    mass     pseudopotential
     Ni1              10.00    58.69340     Ni( 1.00)
     Ni2              10.00    58.69340     Ni( 1.00)
     O                 6.00    15.99900     O ( 1.00)

     Starting magnetic structure 
     atomic species   magnetization
     Ni1             0.150
     Ni2            -0.150
     O               0.000

     12 Sym. Ops., with inversion, found



   Cartesian axes

     site n.     atom                  positions (alat units)
         1        Ni1    tau(   1) = (   0.0000000   0.0000000   0.0000000  )
         2        Ni2    tau(   2) = (   0.0000000   0.6667333   0.4713986  )
         3        O      tau(   3) = (   0.2887040  -0.1666833   0.2356993  )
         4        O      tau(   4) = (  -0.2887040   0.1666833  -0.2356993  )

     number of k points=    32
                       cart. coord. in units 2pi/alat
        k(    1) = (   0.0000000   0.0000000   0.0000000), wk =   0.0046296
        k(    2) = (  -0.2886463  -0.1666500   0.0589263), wk =   0.0277778
        k(    3) = (  -0.5772925  -0.3333000   0.1178526), wk =   0.0277778
        k(    4) = (   0.8659388   0.4999500  -0.1767789), wk =   0.0138889
        k(    5) = (  -0.2886463   0.1666500   0.1178526), wk =   0.0277778
        k(    6) = (  -0.5772925  -0.0000000   0.1767789), wk =   0.0555556
        k(    7) = (   0.8659388   0.8332500  -0.1178526), wk =   0.0555556
        k(    8) = (   0.5772925   0.6666000  -0.0589263), wk =   0.0555556
        k(    9) = (   0.2886463   0.4999500   0.0000000), wk =   0.0277778
        k(   10) = (  -0.5772925   0.3333000   0.2357052), wk =   0.0277778
        k(   11) = (   0.8659388   1.1665500  -0.0589263), wk =   0.0555556
        k(   12) = (   0.5772925   0.9999000   0.0000000), wk =   0.0277778
        k(   13) = (   0.8659388  -0.4999500  -0.3535578), wk =   0.0138889
        k(   14) = (   0.0000000  -0.0000000   0.1767789), wk =   0.0092593
        k(   15) = (  -0.2886463  -0.1666500   0.2357052), wk =   0.0277778
        k(   16) = (   1.1545851   0.6666000  -0.0589263), wk =   0.0277778
        k(   17) = (   0.8659388   0.4999500   0.0000000), wk =   0.0277778
        k(   18) = (   0.5772925   0.3333000   0.0589263), wk =   0.0277778
        k(   19) = (  -0.2886463   0.1666500   0.2946315), wk =   0.0277778
        k(   20) = (   1.1545851   0.9999000   0.0000000), wk =   0.0555556
        k(   21) = (   0.8659388   0.8332500   0.0589263), wk =   0.0555556
        k(   22) = (   0.5772925   0.6666000   0.1178526), wk =   0.0555556
        k(   23) = (   1.1545851  -0.6666000  -0.2946315), wk =   0.0277778
        k(   24) = (   0.8659388  -0.8332500  -0.2357052), wk =   0.0555556
        k(   25) = (   0.5772925  -0.9999000  -0.1767789), wk =   0.0277778
        k(   26) = (   0.8659388  -0.4999500  -0.1767789), wk =   0.0277778
        k(   27) = (   0.0000000  -0.0000000   0.3535578), wk =   0.0092593
        k(   28) = (   1.4432314   0.8332500   0.0589263), wk =   0.0277778
        k(   29) = (   1.1545851   0.6666000   0.1178526), wk =   0.0277778
        k(   30) = (   1.4432314  -0.8332500  -0.2357052), wk =   0.0277778
        k(   31) = (   1.1545851  -0.9999000  -0.1767789), wk =   0.0277778
        k(   32) = (   0.0000000   0.0000000  -0.5303367), wk =   0.0046296

     Dense  grid:    54423 G-vectors     FFT dimensions: (  75,  75,  75)

     Smooth grid:    13705 G-vectors     FFT dimensions: (  45,  45,  45)

     Estimated max dynamical RAM per process >      69.40 MB

     Estimated total dynamical RAM >     347.02 MB
     Generating pointlists ...
     new r_m :   0.1684 (alat units)  1.6355 (a.u.) for type    1
     new r_m :   0.1684 (alat units)  1.6355 (a.u.) for type    2
     new r_m :   0.1684 (alat units)  1.6355 (a.u.) for type    3

     Initial potential from superposition of free atoms

     starting charge      31.9995, renormalised to      32.0000

     STARTING HUBBARD OCCUPATIONS:

     =================== HUBBARD OCCUPATIONS ===================
     ------------------------ ATOM    1 ------------------------
     Tr[ns(  1)] (up, down, total) =   5.00000  3.00000  8.00000
     Atomic magnetic moment for atom   1 =   2.00000
     SPIN  1
     eigenvalues:
       1.000  1.000  1.000  1.000  1.000
     eigenvectors (columns):
       1.000  0.000  0.000  0.000  0.000
       0.000  1.000  0.000  0.000  0.000
       0.000  0.000  1.000  0.000  0.000
       0.000  0.000  0.000  1.000  0.000
       0.000  0.000  0.000  0.000  1.000
     occupation matrix ns (before diag.):
       1.000  0.000  0.000  0.000  0.000
       0.000  1.000  0.000  0.000  0.000
       0.000  0.000  1.000  0.000  0.000
       0.000  0.000  0.000  1.000  0.000
       0.000  0.000  0.000  0.000  1.000
     SPIN  2
     eigenvalues:
       0.600  0.600  0.600  0.600  0.600
     eigenvectors (columns):
       1.000  0.000  0.000  0.000  0.000
       0.000  1.000  0.000  0.000  0.000
       0.000  0.000  1.000  0.000  0.000
       0.000  0.000  0.000  1.000  0.000
       0.000  0.000  0.000  0.000  1.000
     occupation matrix ns (before diag.):
       0.600  0.000  0.000  0.000  0.000
       0.000  0.600  0.000  0.000  0.000
       0.000  0.000  0.600  0.000  0.000
       0.000  0.000  0.000  0.600  0.000
       0.000  0.000  0.000  0.000  0.600
     ------------------------ ATOM    2 ------------------------
     Tr[ns(  2)] (up, down, total) =   3.00000  5.00000  8.00000
     Atomic magnetic moment for atom   2 =  -2.00000
     SPIN  1
     eigenvalues:
       0.600  0.600  0.600  0.600  0.600
     eigenvectors (columns):
       1.000  0.000  0.000  0.000  0.000
       0.000  1.000  0.000  0.000  0.000
       0.000  0.000  1.000  0.000  0.000
       0.000  0.000  0.000  1.000  0.000
       0.000  0.000  0.000  0.000  1.000
     occupation matrix ns (before diag.):
       0.600  0.000  0.000  0.000  0.000
       0.000  0.600  0.000  0.000  0.000
       0.000  0.000  0.600  0.000  0.000
       0.000  0.000  0.000  0.600  0.000
       0.000  0.000  0.000  0.000  0.600
     SPIN  2
     eigenvalues:
       1.000  1.000  1.000  1.000  1.000
     eigenvectors (columns):
       1.000  0.000  0.000  0.000  0.000
       0.000  1.000  0.000  0.000  0.000
       0.000  0.000  1.000  0.000  0.000
       0.000  0.000  0.000  1.000  0.000
       0.000  0.000  0.000  0.000  1.000
     occupation matrix ns (before diag.):
       1.000  0.000  0.000  0.000  0.000
       0.000  1.000  0.000  0.000  0.000
       0.000  0.000  1.000  0.000  0.000
       0.000  0.000  0.000  1.000  0.000
       0.000  0.000  0.000  0.000  1.000

     Number of occupied Hubbard levels =   16.0000

     Atomic wfc used for Hubbard projectors are orthogonalized

     Starting wfcs are   26 randomized atomic wfcs +    6 random wfcs

     total cpu time spent up to now is        1.4 secs

     Self-consistent Calculation

     iteration #  1     ecut=    55.00 Ry     beta= 0.30
     Davidson diagonalization with overlap
     ethr =  1.00E-02,  avg # of iterations =  6.4

     =================== HUBBARD OCCUPATIONS ===================
     ------------------------ ATOM    1 ------------------------
     Tr[ns(  1)] (up, down, total) =   4.92658  3.55179  8.47837
     Atomic magnetic moment for atom   1 =   1.37479
     SPIN  1
     eigenvalues:
       0.970  0.970  0.995  0.995  0.995
     eigenvectors (columns):
       0.000  0.000  0.000 -0.000 -1.000
      -0.688  0.427  0.136 -0.572  0.000
      -0.427 -0.688  0.572  0.136  0.000
      -0.310 -0.499 -0.787 -0.187 -0.000
      -0.499  0.310 -0.187  0.787 -0.000
     occupation matrix ns (before diag.):
       0.995  0.000  0.000  0.000  0.000
       0.000  0.979  0.000 -0.000 -0.012
       0.000  0.000  0.979 -0.012 -0.000
       0.000 -0.000 -0.012  0.987 -0.000
       0.000 -0.012 -0.000 -0.000  0.987
     SPIN  2
     eigenvalues:
       0.304  0.304  0.981  0.981  0.982
     eigenvectors (columns):
       0.000  0.000 -0.000 -0.000  1.000
      -0.745  0.358 -0.144 -0.544 -0.000
      -0.358 -0.745 -0.544  0.144 -0.000
      -0.244 -0.507  0.799 -0.212  0.000
      -0.507  0.244  0.212  0.799  0.000
     occupation matrix ns (before diag.):
       0.982  0.000 -0.000  0.000  0.000
       0.000  0.518  0.000 -0.000 -0.315
      -0.000  0.000  0.518 -0.315  0.000
       0.000 -0.000 -0.315  0.767 -0.000
       0.000 -0.315  0.000 -0.000  0.767
     ------------------------ ATOM    2 ------------------------
     Tr[ns(  2)] (up, down, total) =   3.55184  4.92658  8.47842
     Atomic magnetic moment for atom   2 =  -1.37474
     SPIN  1
     eigenvalues:
       0.304  0.304  0.981  0.981  0.982
     eigenvectors (columns):
       0.000  0.000 -0.000 -0.000  1.000
      -0.745  0.358 -0.144 -0.544 -0.000
      -0.358 -0.745 -0.544  0.144 -0.000
      -0.244 -0.507  0.799 -0.212  0.000
      -0.507  0.244  0.212  0.799  0.000
     occupation matrix ns (before diag.):
       0.982  0.000 -0.000  0.000  0.000
       0.000  0.518  0.000 -0.000 -0.315
      -0.000  0.000  0.518 -0.315  0.000
       0.000 -0.000 -0.315  0.767 -0.000
       0.000 -0.315  0.000 -0.000  0.767
     SPIN  2
     eigenvalues:
       0.970  0.970  0.995  0.995  0.995
     eigenvectors (columns):
       0.000  0.000  0.000 -0.000 -1.000
      -0.688  0.426  0.136 -0.572  0.000
      -0.426 -0.688  0.572  0.136  0.000
      -0.310 -0.499 -0.787 -0.187 -0.000
      -0.499  0.310 -0.187  0.787 -0.000
     occupation matrix ns (before diag.):
       0.995  0.000  0.000  0.000  0.000
       0.000  0.979  0.000 -0.000 -0.012
       0.000  0.000  0.979 -0.012 -0.000
       0.000 -0.000 -0.012  0.987 -0.000
       0.000 -0.012 -0.000 -0.000  0.987

     Number of occupied Hubbard levels =   16.9568

     Threshold (ethr) on eigenvalues was too large:
     Diagonalizing with lowered threshold

     Davidson diagonalization with overlap
     ethr =  8.73E-04,  avg # of iterations =  2.1

     total cpu time spent up to now is        7.7 secs

     total energy              =    -264.78423385 Ry
     estimated scf accuracy    <       0.27283320 Ry

     total magnetization       =    -0.00 Bohr mag/cell
     absolute magnetization    =     2.93 Bohr mag/cell

     iteration #  2     ecut=    55.00 Ry     beta= 0.30
     Davidson diagonalization with overlap
