
     Program PWSCF v.7.5 starts on 25Feb2026 at 20:19:16 

     This program is part of the open-source Quantum ESPRESSO suite
     for quantum simulation of materials; please cite
         "P. Giannozzi et al., J. Phys.:Condens. Matter 21 395502 (2009);
         "P. Giannozzi et al., J. Phys.:Condens. Matter 29 465901 (2017);
         "P. Giannozzi et al., J. Chem. Phys. 152 154105 (2020);
          URL http://www.quantum-espresso.org", 
     in publications or presentations arising from this work. More details at
     http://www.quantum-espresso.org/quote

     Parallel version (MPI), running on     5 processors

     MPI processes distributed on     1 nodes
     0 MiB available memory on the printing compute node when the environment starts

     Reading input from NiO.scf.in
Warning: card &CELL ignored
Warning: card     CELL_DOFREE='IBRAV' ignored

     Current dimensions of program PWSCF are:
     Max number of different atomic species (ntypx) = 10
     Max number of k-points (npk) =  40000
     Max angular momentum in pseudopotentials (lmaxx) =  4
     file Ni.pbesol-n-rrkjus_psl.0.1.UPF: wavefunction(s)  3D renormalized
     file Ni.pbesol-n-rrkjus_psl.0.1.UPF: wavefunction(s)  3D renormalized

     R & G space division:  proc/nbgrp/npool/nimage =       5
     Subspace diagonalization in iterative solution of the eigenvalue problem:
     a serial algorithm will be used


     Parallelization info
     --------------------
     sticks:   dense  smooth     PW     G-vecs:    dense   smooth      PW
     Min         231      92     30                 5243     1322     241
     Max         232      93     31                 5247     1324     244
     Sum        1159     463    151                26229     6615    1211

     Using Slab Decomposition



     bravais-lattice index     =            2
     lattice parameter (alat)  =       7.8369  a.u.
     unit-cell volume          =     120.3288 (a.u.)^3
     number of atoms/cell      =            4
     number of atomic types    =            3
     number of electrons       =        32.00 (up:  16.00, down:  16.00)
     number of Kohn-Sham states=           32
     kinetic-energy cutoff     =      55.0000  Ry
     charge density cutoff     =     550.0000  Ry
     scf convergence threshold =      1.0E-09
     mixing beta               =       0.3000
     number of iterations used =            8  plain     mixing
     Exchange-correlation= PBESOL
                           (   1   4  10   8   0   0   0)
     Hubbard projectors: ortho-atomic
     Hubbard parameters of DFT+U (Dudarev formulation) in eV:
     U(Ni1-3d) =  8.0000
     U(Ni2-3d) =  8.0000

     Internal variables: lda_plus_u =T, lda_plus_u_kind = 0

     Internal variables: orbital_resolved =F, hub_pot_fix =F, apply_U = F

     celldm(1)=   7.836879  celldm(2)=   0.000000  celldm(3)=   0.000000
     celldm(4)=   0.000000  celldm(5)=   0.000000  celldm(6)=   0.000000

     crystal axes: (cart. coord. in units of alat)
               a(1) = (  -0.500000   0.000000   0.500000 )  
               a(2) = (   0.000000   0.500000   0.500000 )  
               a(3) = (  -0.500000   0.500000   0.000000 )  

     reciprocal axes: (cart. coord. in units 2 pi/alat)
               b(1) = ( -1.000000 -1.000000  1.000000 )  
               b(2) = (  1.000000  1.000000  1.000000 )  
               b(3) = ( -1.000000  1.000000 -1.000000 )  


     PseudoPot. # 1 for Ni read from file:
     /Users/kirill/Documents/dft/volume/NiO_calibr/band_gap_U/../../../pot/Ni.pbesol-n-rrkjus_psl.0.1.UPF
     MD5 check sum: 8a65ecc087b22b902f7e15bb4f925df7
     Pseudo is Ultrasoft + core correction, Zval = 10.0
     Generated using "atomic" code by A. Dal Corso  v.5.0.2 svn rev. 9415
     Using radial grid of 1195 points,  6 beta functions with: 
                l(1) =   0
                l(2) =   0
                l(3) =   1
                l(4) =   1
                l(5) =   2
                l(6) =   2
     Q(r) pseudized with 0 coefficients 


     PseudoPot. # 2 for Ni read from file:
     /Users/kirill/Documents/dft/volume/NiO_calibr/band_gap_U/../../../pot/Ni.pbesol-n-rrkjus_psl.0.1.UPF
     MD5 check sum: 8a65ecc087b22b902f7e15bb4f925df7
     Pseudo is Ultrasoft + core correction, Zval = 10.0
     Generated using "atomic" code by A. Dal Corso  v.5.0.2 svn rev. 9415
     Using radial grid of 1195 points,  6 beta functions with: 
                l(1) =   0
                l(2) =   0
                l(3) =   1
                l(4) =   1
                l(5) =   2
                l(6) =   2
     Q(r) pseudized with 0 coefficients 


     PseudoPot. # 3 for O  read from file:
     /Users/kirill/Documents/dft/volume/NiO_calibr/band_gap_U/../../../pot/O.pbesol-n-rrkjus_psl.1.0.0.UPF
     MD5 check sum: 69b2cf9905362d8720b1d83b4ba3171b
     Pseudo is Ultrasoft + core correction, Zval =  6.0
     Generated using &quot;atomic&quot; code by A. Dal Corso  v.6.3MaX
     Using radial grid of 1095 points,  4 beta functions with: 
                l(1) =   0
                l(2) =   0
                l(3) =   1
                l(4) =   1
     Q(r) pseudized with 0 coefficients 


     atomic species   valence    mass     pseudopotential
     Ni1              10.00    58.69340     Ni( 1.00)
     Ni2              10.00    58.69340     Ni( 1.00)
     O                 6.00    15.99900     O ( 1.00)

     Starting magnetic structure 
     atomic species   magnetization
     Ni1             0.200
     Ni2            -0.200
     O               0.000

     48 Sym. Ops., with inversion, found



   Cartesian axes

     site n.     atom                  positions (alat units)
         1        Ni1    tau(   1) = (   0.0000000   0.0000000   0.0000000  )
         2        Ni2    tau(   2) = (   0.5000000   0.5000000   0.5000000  )
         3        O      tau(   3) = (   0.2500000   0.2500000   0.2500000  )
         4        O      tau(   4) = (   0.7500000   0.7500000   0.7500000  )

     number of k points=     8
                       cart. coord. in units 2pi/alat
        k(    1) = (   0.0000000   0.0000000   0.0000000), wk =   0.0156250
        k(    2) = (  -0.2500000   0.2500000  -0.2500000), wk =   0.1250000
        k(    3) = (   0.5000000  -0.5000000   0.5000000), wk =   0.0625000
        k(    4) = (   0.0000000   0.5000000   0.0000000), wk =   0.0937500
        k(    5) = (   0.7500000  -0.2500000   0.7500000), wk =   0.3750000
        k(    6) = (   0.5000000   0.0000000   0.5000000), wk =   0.1875000
        k(    7) = (   0.0000000  -1.0000000   0.0000000), wk =   0.0468750
        k(    8) = (  -0.5000000  -1.0000000   0.0000000), wk =   0.0937500

     Dense  grid:    26229 G-vectors     FFT dimensions: (  45,  45,  45)

     Smooth grid:     6615 G-vectors     FFT dimensions: (  27,  27,  27)

     Estimated max dynamical RAM per process >      28.90 MB

     Estimated total dynamical RAM >     144.51 MB
     Generating pointlists ...
     new r_m :   0.1786 (alat units)  1.3998 (a.u.) for type    1
     new r_m :   0.1786 (alat units)  1.3998 (a.u.) for type    2
     new r_m :   0.1786 (alat units)  1.3998 (a.u.) for type    3

     Initial potential from superposition of free atoms

     starting charge      31.9995, renormalised to      32.0000

     STARTING HUBBARD OCCUPATIONS:

     =================== HUBBARD OCCUPATIONS ===================
     ------------------------ ATOM    1 ------------------------
     Tr[ns(  1)] (up, down, total) =   5.00000  3.00000  8.00000
     Atomic magnetic moment for atom   1 =   2.00000
     SPIN  1
     eigenvalues:
       1.000  1.000  1.000  1.000  1.000
     eigenvectors (columns):
       1.000  0.000  0.000  0.000  0.000
       0.000  1.000  0.000  0.000  0.000
       0.000  0.000  1.000  0.000  0.000
       0.000  0.000  0.000  1.000  0.000
       0.000  0.000  0.000  0.000  1.000
     occupation matrix ns (before diag.):
       1.000  0.000  0.000  0.000  0.000
       0.000  1.000  0.000  0.000  0.000
       0.000  0.000  1.000  0.000  0.000
       0.000  0.000  0.000  1.000  0.000
       0.000  0.000  0.000  0.000  1.000
     SPIN  2
     eigenvalues:
       0.600  0.600  0.600  0.600  0.600
     eigenvectors (columns):
       1.000  0.000  0.000  0.000  0.000
       0.000  1.000  0.000  0.000  0.000
       0.000  0.000  1.000  0.000  0.000
       0.000  0.000  0.000  1.000  0.000
       0.000  0.000  0.000  0.000  1.000
     occupation matrix ns (before diag.):
       0.600  0.000  0.000  0.000  0.000
       0.000  0.600  0.000  0.000  0.000
       0.000  0.000  0.600  0.000  0.000
       0.000  0.000  0.000  0.600  0.000
       0.000  0.000  0.000  0.000  0.600
     ------------------------ ATOM    2 ------------------------
     Tr[ns(  2)] (up, down, total) =   3.00000  5.00000  8.00000
     Atomic magnetic moment for atom   2 =  -2.00000
     SPIN  1
     eigenvalues:
       0.600  0.600  0.600  0.600  0.600
     eigenvectors (columns):
       1.000  0.000  0.000  0.000  0.000
       0.000  1.000  0.000  0.000  0.000
       0.000  0.000  1.000  0.000  0.000
       0.000  0.000  0.000  1.000  0.000
       0.000  0.000  0.000  0.000  1.000
     occupation matrix ns (before diag.):
       0.600  0.000  0.000  0.000  0.000
       0.000  0.600  0.000  0.000  0.000
       0.000  0.000  0.600  0.000  0.000
       0.000  0.000  0.000  0.600  0.000
       0.000  0.000  0.000  0.000  0.600
     SPIN  2
     eigenvalues:
       1.000  1.000  1.000  1.000  1.000
     eigenvectors (columns):
       1.000  0.000  0.000  0.000  0.000
       0.000  1.000  0.000  0.000  0.000
       0.000  0.000  1.000  0.000  0.000
       0.000  0.000  0.000  1.000  0.000
       0.000  0.000  0.000  0.000  1.000
     occupation matrix ns (before diag.):
       1.000  0.000  0.000  0.000  0.000
       0.000  1.000  0.000  0.000  0.000
       0.000  0.000  1.000  0.000  0.000
       0.000  0.000  0.000  1.000  0.000
       0.000  0.000  0.000  0.000  1.000

     Number of occupied Hubbard levels =   16.0000

     Atomic wfc used for Hubbard projectors are orthogonalized

     Starting wfcs are   26 randomized atomic wfcs +    6 random wfcs

     total cpu time spent up to now is        0.4 secs

     Self-consistent Calculation

     iteration #  1     ecut=    55.00 Ry     beta= 0.30
     Davidson diagonalization with overlap
     ethr =  1.00E-02,  avg # of iterations =  7.4

     =================== HUBBARD OCCUPATIONS ===================
     ------------------------ ATOM    1 ------------------------
     Tr[ns(  1)] (up, down, total) =   4.85042  3.75235  8.60277
     Atomic magnetic moment for atom   1 =   1.09808
     SPIN  1
     eigenvalues:
       0.960  0.960  0.960  0.985  0.985
     eigenvectors (columns):
      -0.000  0.000 -0.000 -0.457  0.890
      -0.257 -0.564 -0.785 -0.000 -0.000
      -0.596 -0.547  0.588 -0.000 -0.000
       0.000 -0.000  0.000 -0.890 -0.457
       0.761 -0.619  0.196  0.000  0.000
     occupation matrix ns (before diag.):
       0.985 -0.000 -0.000 -0.000  0.000
      -0.000  0.960 -0.000  0.000  0.000
      -0.000 -0.000  0.960  0.000  0.000
      -0.000  0.000  0.000  0.985 -0.000
       0.000  0.000  0.000 -0.000  0.960
     SPIN  2
     eigenvalues:
       0.619  0.619  0.619  0.947  0.947
     eigenvectors (columns):
      -0.000  0.000 -0.000 -0.692  0.722
      -0.271 -0.702 -0.659 -0.000 -0.000
      -0.607 -0.406  0.683 -0.000 -0.000
       0.000 -0.000  0.000 -0.722 -0.692
       0.747 -0.585  0.316  0.000  0.000
     occupation matrix ns (before diag.):
       0.947 -0.000 -0.000 -0.000  0.000
      -0.000  0.619 -0.000  0.000  0.000
      -0.000 -0.000  0.619  0.000  0.000
      -0.000  0.000  0.000  0.947 -0.000
       0.000  0.000  0.000 -0.000  0.619
     ------------------------ ATOM    2 ------------------------
     Tr[ns(  2)] (up, down, total) =   3.75217  4.85040  8.60257
     Atomic magnetic moment for atom   2 =  -1.09822
     SPIN  1
     eigenvalues:
       0.619  0.619  0.619  0.947  0.947
     eigenvectors (columns):
      -0.000 -0.000  0.000 -0.590  0.808
      -0.247 -0.923 -0.296 -0.000 -0.000
      -0.601  0.385 -0.701 -0.000 -0.000
       0.000  0.000 -0.000 -0.808 -0.590
       0.760  0.005 -0.649  0.000  0.000
     occupation matrix ns (before diag.):
       0.947 -0.000 -0.000 -0.000  0.000
      -0.000  0.619 -0.000  0.000  0.000
      -0.000 -0.000  0.619  0.000  0.000
      -0.000  0.000  0.000  0.947 -0.000
       0.000  0.000  0.000 -0.000  0.619
     SPIN  2
     eigenvalues:
       0.960  0.960  0.960  0.985  0.985
     eigenvectors (columns):
      -0.000 -0.000  0.000 -0.798  0.603
      -0.268 -0.936  0.228 -0.000 -0.000
      -0.583 -0.030 -0.812 -0.000 -0.000
       0.000  0.000 -0.000 -0.603 -0.798
       0.767 -0.350 -0.538  0.000  0.000
     occupation matrix ns (before diag.):
       0.985 -0.000 -0.000 -0.000  0.000
      -0.000  0.960 -0.000  0.000  0.000
      -0.000 -0.000  0.960  0.000  0.000
      -0.000  0.000  0.000  0.985 -0.000
       0.000  0.000  0.000 -0.000  0.960

     Number of occupied Hubbard levels =   17.2053

     Threshold (ethr) on eigenvalues was too large:
     Diagonalizing with lowered threshold

     Davidson diagonalization with overlap
     ethr =  9.08E-04,  avg # of iterations =  2.4

     total cpu time spent up to now is        1.1 secs

     total energy              =    -262.99313433 Ry
     estimated scf accuracy    <       0.28260931 Ry

     total magnetization       =     0.00 Bohr mag/cell
     absolute magnetization    =     2.39 Bohr mag/cell

     iteration #  2     ecut=    55.00 Ry     beta= 0.30
     Davidson diagonalization with overlap
     ethr =  8.83E-04,  avg # of iterations =  1.9

     total cpu time spent up to now is        1.3 secs

     total energy              =    -262.99268363 Ry
     estimated scf accuracy    <       0.07780451 Ry

     total magnetization       =    -0.00 Bohr mag/cell
     absolute magnetization    =     2.09 Bohr mag/cell

     iteration #  3     ecut=    55.00 Ry     beta= 0.30
     Davidson diagonalization with overlap
     ethr =  2.43E-04,  avg # of iterations =  3.2

     total cpu time spent up to now is        1.6 secs

     total energy              =    -263.00700600 Ry
     estimated scf accuracy    <       0.00849326 Ry

     total magnetization       =    -0.00 Bohr mag/cell
     absolute magnetization    =     2.05 Bohr mag/cell

     iteration #  4     ecut=    55.00 Ry     beta= 0.30
     Davidson diagonalization with overlap
     ethr =  2.65E-05,  avg # of iterations =  5.9

     total cpu time spent up to now is        1.9 secs

     total energy              =    -263.01094814 Ry
     estimated scf accuracy    <       0.00417220 Ry

     total magnetization       =     0.00 Bohr mag/cell
     absolute magnetization    =     1.99 Bohr mag/cell

     iteration #  5     ecut=    55.00 Ry     beta= 0.30
     Davidson diagonalization with overlap
     ethr =  1.30E-05,  avg # of iterations =  2.2

     total cpu time spent up to now is        2.1 secs

     total energy              =    -263.01177254 Ry
     estimated scf accuracy    <       0.00196221 Ry

     total magnetization       =    -0.00 Bohr mag/cell
     absolute magnetization    =     1.91 Bohr mag/cell

     iteration #  6     ecut=    55.00 Ry     beta= 0.30
     Davidson diagonalization with overlap
     ethr =  6.13E-06,  avg # of iterations =  1.5

     total cpu time spent up to now is        2.4 secs

     total energy              =    -263.01211918 Ry
     estimated scf accuracy    <       0.00036426 Ry

     total magnetization       =     0.00 Bohr mag/cell
     absolute magnetization    =     1.87 Bohr mag/cell

     iteration #  7     ecut=    55.00 Ry     beta= 0.30
     Davidson diagonalization with overlap
     ethr =  1.14E-06,  avg # of iterations =  2.4

     total cpu time spent up to now is        2.6 secs

     total energy              =    -263.01224625 Ry
     estimated scf accuracy    <       0.00012832 Ry

     total magnetization       =     0.00 Bohr mag/cell
     absolute magnetization    =     1.82 Bohr mag/cell

     iteration #  8     ecut=    55.00 Ry     beta= 0.30
     Davidson diagonalization with overlap
     ethr =  4.01E-07,  avg # of iterations =  1.9

     total cpu time spent up to now is        2.9 secs

     total energy              =    -263.01237873 Ry
     estimated scf accuracy    <       0.00001040 Ry

     total magnetization       =     0.00 Bohr mag/cell
     absolute magnetization    =     1.78 Bohr mag/cell

     iteration #  9     ecut=    55.00 Ry     beta= 0.30
     Davidson diagonalization with overlap
     ethr =  3.25E-08,  avg # of iterations =  3.6

     total cpu time spent up to now is        3.2 secs

     total energy              =    -263.01238339 Ry
     estimated scf accuracy    <       0.00000079 Ry

     total magnetization       =    -0.00 Bohr mag/cell
     absolute magnetization    =     1.78 Bohr mag/cell

     iteration # 10     ecut=    55.00 Ry     beta= 0.30
     Davidson diagonalization with overlap
     ethr =  2.46E-09,  avg # of iterations =  3.6

     total cpu time spent up to now is        3.5 secs

     total energy              =    -263.01238376 Ry
     estimated scf accuracy    <       0.00000013 Ry

     total magnetization       =     0.00 Bohr mag/cell
     absolute magnetization    =     1.78 Bohr mag/cell

     iteration # 11     ecut=    55.00 Ry     beta= 0.30
     Davidson diagonalization with overlap
     ethr =  3.98E-10,  avg # of iterations =  2.2

     total cpu time spent up to now is        3.7 secs

     total energy              =    -263.01238380 Ry
     estimated scf accuracy    <          7.5E-09 Ry

     total magnetization       =     0.00 Bohr mag/cell
     absolute magnetization    =     1.78 Bohr mag/cell

     iteration # 12     ecut=    55.00 Ry     beta= 0.30
     Davidson diagonalization with overlap
     ethr =  2.34E-11,  avg # of iterations =  3.6

     total cpu time spent up to now is        4.0 secs

     total energy              =    -263.01238380 Ry
     estimated scf accuracy    <          1.6E-09 Ry

     total magnetization       =     0.00 Bohr mag/cell
     absolute magnetization    =     1.78 Bohr mag/cell

     iteration # 13     ecut=    55.00 Ry     beta= 0.30
     Davidson diagonalization with overlap
     ethr =  4.98E-12,  avg # of iterations =  2.5

     Magnetic moment per site  (integrated on atomic sphere of radius R)
     atom   1 (R=0.179)  charge=  7.5580  magn=  0.8097
     atom   2 (R=0.179)  charge=  7.5581  magn= -0.8097
     atom   3 (R=0.179)  charge=  5.4357  magn= -0.0000
     atom   4 (R=0.179)  charge=  5.4357  magn= -0.0000

     total cpu time spent up to now is        4.3 secs

     End of self-consistent calculation

     =================== HUBBARD OCCUPATIONS ===================
     ------------------------ ATOM    1 ------------------------
     Tr[ns(  1)] (up, down, total) =   4.74232  3.92233  8.66465
     Atomic magnetic moment for atom   1 =   0.82000
     SPIN  1
     eigenvalues:
       0.930  0.930  0.930  0.977  0.977
     eigenvectors (columns):
      -0.000 -0.000  0.000 -0.464  0.886
      -0.280 -0.943  0.178 -0.000 -0.000
      -0.582  0.020 -0.813 -0.000 -0.000
       0.000  0.000 -0.000 -0.886 -0.464
       0.763 -0.331 -0.555  0.000  0.000
     occupation matrix ns (before diag.):
       0.977 -0.000 -0.000 -0.000  0.000
      -0.000  0.930 -0.000  0.000  0.000
      -0.000 -0.000  0.930  0.000  0.000
      -0.000  0.000  0.000  0.977 -0.000
       0.000  0.000  0.000 -0.000  0.930
     SPIN  2
     eigenvalues:
       0.665  0.665  0.665  0.964  0.964
     eigenvectors (columns):
      -0.000 -0.000  0.000 -0.388  0.922
      -0.266 -0.930  0.255 -0.000 -0.000
      -0.585 -0.055 -0.809 -0.000 -0.000
       0.000  0.000 -0.000 -0.922 -0.388
       0.766 -0.364 -0.529  0.000  0.000
     occupation matrix ns (before diag.):
       0.964 -0.000 -0.000 -0.000  0.000
      -0.000  0.665 -0.000  0.000  0.000
      -0.000 -0.000  0.665  0.000  0.000
      -0.000  0.000  0.000  0.964 -0.000
       0.000  0.000  0.000 -0.000  0.665
     ------------------------ ATOM    2 ------------------------
     Tr[ns(  2)] (up, down, total) =   3.92233  4.74232  8.66465
     Atomic magnetic moment for atom   2 =  -0.82000
     SPIN  1
     eigenvalues:
       0.665  0.665  0.665  0.964  0.964
     eigenvectors (columns):
      -0.000  0.000 -0.000 -0.495  0.869
      -0.258 -0.299 -0.919 -0.000 -0.000
      -0.619 -0.679  0.394 -0.000 -0.000
       0.000 -0.000  0.000 -0.869 -0.495
       0.742 -0.670  0.010  0.000  0.000
     occupation matrix ns (before diag.):
       0.964 -0.000 -0.000 -0.000  0.000
      -0.000  0.665 -0.000  0.000  0.000
      -0.000 -0.000  0.665  0.000  0.000
      -0.000  0.000  0.000  0.964 -0.000
       0.000  0.000  0.000 -0.000  0.665
     SPIN  2
     eigenvalues:
       0.930  0.930  0.930  0.977  0.977
     eigenvectors (columns):
      -0.000 -0.000  0.000 -0.423  0.906
      -0.278 -0.955  0.100 -0.000 -0.000
      -0.609  0.095 -0.787 -0.000 -0.000
       0.000  0.000 -0.000 -0.906 -0.423
       0.742 -0.280 -0.609  0.000  0.000
     occupation matrix ns (before diag.):
       0.977 -0.000 -0.000 -0.000  0.000
      -0.000  0.930 -0.000  0.000  0.000
      -0.000 -0.000  0.930  0.000  0.000
      -0.000  0.000  0.000  0.977 -0.000
       0.000  0.000  0.000 -0.000  0.930

     Number of occupied Hubbard levels =   17.3293

 ------ SPIN UP ------------


          k = 0.0000 0.0000 0.0000 (   869 PWs)   bands (ev):

     0.0359   9.3382  13.2437  13.2437  13.2437  18.1794  18.1794  23.7152
    23.7152  23.7152  25.9640  25.9640  25.9640  26.6939  26.6939  31.4787
    31.4787  31.4787  38.7695  38.7695  38.7695  38.9720  50.2635  50.2635
    60.4323  63.6874  63.6874  63.6874  64.6281  64.6281  64.6281  73.2470

          k =-0.2500 0.2500-0.2500 (   827 PWs)   bands (ev):

     1.2071   6.5129  14.3130  14.3130  17.5203  17.9792  17.9792  20.5859
    22.8524  22.8524  24.9292  24.9292  26.2922  26.9186  26.9186  28.7321
    30.5396  30.5396  40.8737  41.0765  42.7070  42.7070  50.6305  50.6305
    58.8848  60.7786  60.7786  61.8254  62.0608  62.0608  66.3186  70.1021

          k = 0.5000-0.5000 0.5000 (   832 PWs)   bands (ev):

     3.6520   3.8134  16.3446  16.3446  17.1159  17.1159  19.3346  19.6750
    21.9887  21.9887  23.1635  23.1635  25.1752  27.7669  27.9588  27.9588
    29.8200  29.8200  42.1840  42.3221  49.3439  49.3439  49.3836  49.3836
    57.2806  57.2806  57.3702  57.3702  57.9496  57.9505  75.3317  75.3486

          k = 0.0000 0.5000 0.0000 (   833 PWs)   bands (ev):

     1.5978   6.0907  14.6199  14.6199  15.7881  18.7833  18.7853  21.2681
    21.2681  22.7789  24.2429  26.0933  26.6328  26.9345  26.9345  29.3712
    29.3712  30.5902  40.1995  41.1211  44.1241  44.1241  48.9017  50.3972
    58.9601  58.9601  59.2679  63.9786  63.9786  65.0806  65.9444  66.0032

          k = 0.7500-0.2500 0.7500 (   822 PWs)   bands (ev):

     3.4879   4.5132  13.9619  15.5215  16.2454  18.5486  20.3573  20.4929
    21.1291  22.0876  24.5738  24.7008  25.6547  26.3441  26.6767  28.7373
    29.8221  30.4278  41.7413  43.1468  47.5314  47.7713  48.8093  50.1735
    53.0732  55.3569  57.6207  61.1935  62.6842  65.5002  67.7617  70.8742

          k = 0.5000 0.0000 0.5000 (   837 PWs)   bands (ev):

     2.7399   5.0594  14.3452  16.0083  16.3014  17.2734  20.7575  21.2173
    21.3902  22.0839  24.1016  25.0276  25.1423  25.5089  26.9442  28.6793
    29.5998  31.0848  42.4765  42.6192  45.4578  46.5415  49.5870  51.0881
    53.6404  56.2989  59.7405  61.1389  62.0654  65.1117  66.4029  68.2117

          k = 0.0000-1.0000 0.0000 (   806 PWs)   bands (ev):

     3.9897   4.4680  11.8739  16.6235  16.6235  19.4486  19.7180  19.7180
    19.9257  24.2680  24.2680  25.2111  25.5925  26.5733  26.6313  27.9892
    30.8212  30.8212  40.8357  43.2118  47.1484  47.3101  49.4100  49.4100
    54.6262  55.0692  55.0692  63.2530  64.4204  64.4204  68.0839  68.0839

          k =-0.5000-1.0000 0.0000 (   848 PWs)   bands (ev):

     4.2306   4.2306  13.7377  13.7913  18.1354  18.1354  20.3080  20.3991
    20.4588  22.0653  24.8847  24.8847  26.2902  26.3631  28.2649  28.7399
    28.7399  29.6851  43.1093  43.1682  46.1084  46.1084  52.1252  52.1252
    52.2682  52.3108  58.8120  58.8120  66.9790  67.2008  67.2322  67.2447

 ------ SPIN DOWN ----------


          k = 0.0000 0.0000 0.0000 (   869 PWs)   bands (ev):

     0.0359   9.3382  13.2437  13.2437  13.2437  18.1794  18.1794  23.7152
    23.7152  23.7152  25.9640  25.9640  25.9640  26.6939  26.6939  31.4787
    31.4787  31.4787  38.7695  38.7695  38.7695  38.9720  50.2635  50.2635
    60.4322  63.6874  63.6874  63.6874  64.6281  64.6281  64.6281  73.2470

          k =-0.2500 0.2500-0.2500 (   827 PWs)   bands (ev):

     1.2071   6.5129  14.3130  14.3130  17.5203  17.9792  17.9792  20.5859
    22.8524  22.8524  24.9292  24.9292  26.2922  26.9186  26.9186  28.7321
    30.5396  30.5396  40.8737  41.0765  42.7070  42.7070  50.6305  50.6305
    58.8848  60.7786  60.7786  61.8254  62.0608  62.0608  66.3186  70.1021

          k = 0.5000-0.5000 0.5000 (   832 PWs)   bands (ev):

     3.6520   3.8134  16.3446  16.3446  17.1159  17.1159  19.3346  19.6750
    21.9887  21.9887  23.1635  23.1635  25.1752  27.7669  27.9588  27.9588
    29.8200  29.8200  42.1840  42.3221  49.3439  49.3439  49.3836  49.3836
    57.2806  57.2806  57.3702  57.3702  57.9496  57.9505  75.2930  75.3121

          k = 0.0000 0.5000 0.0000 (   833 PWs)   bands (ev):

     1.5978   6.0907  14.6199  14.6199  15.7881  18.7833  18.7853  21.2681
    21.2681  22.7789  24.2429  26.0933  26.6328  26.9345  26.9345  29.3712
    29.3712  30.5902  40.1995  41.1211  44.1241  44.1241  48.9017  50.3972
    58.9601  58.9601  59.2679  63.9786  63.9786  65.0806  65.9444  66.0032

          k = 0.7500-0.2500 0.7500 (   822 PWs)   bands (ev):

     3.4879   4.5132  13.9619  15.5215  16.2455  18.5486  20.3573  20.4929
    21.1291  22.0876  24.5738  24.7008  25.6547  26.3441  26.6767  28.7373
    29.8221  30.4278  41.7413  43.1468  47.5314  47.7713  48.8093  50.1735
    53.0732  55.3568  57.6207  61.1935  62.6842  65.5002  67.7617  70.8741

          k = 0.5000 0.0000 0.5000 (   837 PWs)   bands (ev):

     2.7399   5.0594  14.3452  16.0083  16.3014  17.2734  20.7575  21.2173
    21.3902  22.0839  24.1016  25.0276  25.1423  25.5089  26.9442  28.6793
    29.5998  31.0848  42.4765  42.6192  45.4578  46.5415  49.5870  51.0881
    53.6404  56.2989  59.7405  61.1389  62.0654  65.1117  66.4029  68.2117

          k = 0.0000-1.0000 0.0000 (   806 PWs)   bands (ev):

     3.9897   4.4680  11.8739  16.6235  16.6235  19.4486  19.7180  19.7180
    19.9257  24.2680  24.2680  25.2110  25.5925  26.5733  26.6313  27.9892
    30.8212  30.8212  40.8357  43.2118  47.1484  47.3101  49.4100  49.4100
    54.6262  55.0692  55.0692  63.2530  64.4203  64.4203  68.0839  68.0839

          k =-0.5000-1.0000 0.0000 (   848 PWs)   bands (ev):

     4.2306   4.2306  13.7377  13.7913  18.1354  18.1354  20.3080  20.3991
    20.4588  22.0654  24.8847  24.8847  26.2902  26.3631  28.2649  28.7398
    28.7398  29.6851  43.1093  43.1682  46.1084  46.1084  52.1252  52.1252
    52.2682  52.3108  58.8120  58.8120  66.9791  67.2008  67.2325  67.2448

     highest occupied, lowest unoccupied level (ev):    31.4787   28.7398

!    total energy              =    -263.01238380 Ry
     estimated scf accuracy    <          9.8E-10 Ry

     The total energy is the sum of the following terms:
     one-electron contribution =      49.33085883 Ry
     hartree contribution      =      33.50526822 Ry
     xc contribution           =    -100.35479633 Ry
     ewald contribution        =    -246.06978039 Ry
     Hubbard energy            =       0.57606586 Ry

     total magnetization       =    -0.00 Bohr mag/cell
     absolute magnetization    =     1.78 Bohr mag/cell

     convergence has been achieved in  13 iterations

     Writing all to output data dir /Users/kirill/Documents/dft/volume/NiO_calibr/band_gap_U/out/NiO.save/ :
     XML data file, charge density, pseudopotentials, collected wavefunctions

     init_run     :      0.27s CPU      0.27s WALL (       1 calls)
     electrons    :      3.85s CPU      3.92s WALL (       1 calls)

     Called by init_run:
     wfcinit      :      0.06s CPU      0.06s WALL (       1 calls)
     potinit      :      0.02s CPU      0.02s WALL (       1 calls)
     hinit0       :      0.15s CPU      0.15s WALL (       1 calls)

     Called by electrons:
     c_bands      :      2.65s CPU      2.70s WALL (      14 calls)
     sum_band     :      0.79s CPU      0.80s WALL (      14 calls)
     v_of_rho     :      0.18s CPU      0.18s WALL (      14 calls)
     newd         :      0.23s CPU      0.23s WALL (      14 calls)
     mix_rho      :      0.02s CPU      0.02s WALL (      14 calls)

     Called by c_bands:
     init_us_2    :      0.02s CPU      0.02s WALL (     480 calls)
     cegterg      :      2.60s CPU      2.65s WALL (     224 calls)

     Called by *egterg:
     cdiaghg      :      0.72s CPU      0.72s WALL (     920 calls)
     h_psi        :      1.67s CPU      1.72s WALL (     952 calls)
     s_psi        :      0.04s CPU      0.04s WALL (     968 calls)
     g_psi        :      0.00s CPU      0.00s WALL (     712 calls)

     Called by h_psi:
     h_psi:calbec :      0.06s CPU      0.06s WALL (     952 calls)
     vloc_psi     :      1.51s CPU      1.55s WALL (     952 calls)
                                        0.00s GPU  (     952 calls)
     add_vuspsi   :      0.04s CPU      0.04s WALL (     952 calls)
     vhpsi        :      0.06s CPU      0.06s WALL (     952 calls)

     General routines
     calbec       :      0.12s CPU      0.12s WALL (    2368 calls)
     fft          :      0.12s CPU      0.12s WALL (     346 calls)
     ffts         :      0.00s CPU      0.00s WALL (      56 calls)
     fftw         :      1.72s CPU      1.76s WALL (   42242 calls)
     interpolate  :      0.01s CPU      0.01s WALL (      28 calls)

     Parallel routines

     Hubbard U routines
     new_ns       :      0.01s CPU      0.01s WALL (      14 calls)
     vhpsi        :      0.06s CPU      0.06s WALL (     952 calls)

     PWSCF        :      4.24s CPU      4.33s WALL


   This run was terminated on:  20:19:21  25Feb2026            

=------------------------------------------------------------------------------=
   JOB DONE.
=------------------------------------------------------------------------------=
