
     Program PWSCF v.7.5 starts on 24Mar2026 at 17:56:17 

     This program is part of the open-source Quantum ESPRESSO suite
     for quantum simulation of materials; please cite
         "P. Giannozzi et al., J. Phys.:Condens. Matter 21 395502 (2009);
         "P. Giannozzi et al., J. Phys.:Condens. Matter 29 465901 (2017);
         "P. Giannozzi et al., J. Chem. Phys. 152 154105 (2020);
          URL http://www.quantum-espresso.org", 
     in publications or presentations arising from this work. More details at
     http://www.quantum-espresso.org/quote

     Parallel version (MPI), running on     5 processors

     MPI processes distributed on     1 nodes
     0 MiB available memory on the printing compute node when the environment starts

     Reading input from NiO.scf.in
Warning: card &CELL ignored
Warning: card     CELL_DOFREE='IBRAV' ignored

     Current dimensions of program PWSCF are:
     Max number of different atomic species (ntypx) = 10
     Max number of k-points (npk) =  40000
     Max angular momentum in pseudopotentials (lmaxx) =  4
     file Ni.pbesol-spn-rrkjus_psl.1.0.0.UPF: wavefunction(s)  3P 3D renormalized
     file Ni.pbesol-spn-rrkjus_psl.1.0.0.UPF: wavefunction(s)  3P 3D renormalized
     file O.pbesol-n-kjpaw_psl.1.0.0.UPF: wavefunction(s)  2S 2P renormalized

     R & G space division:  proc/nbgrp/npool/nimage =       5
     Subspace diagonalization in iterative solution of the eigenvalue problem:
     a serial algorithm will be used


     Parallelization info
     --------------------
     sticks:   dense  smooth     PW     G-vecs:    dense   smooth      PW
     Min         296     117     37                 7500     1901     327
     Max         297     121     38                 7503     1901     329
     Sum        1483     595    187                37509     9505    1639

     Using Slab Decomposition



     bravais-lattice index     =            2
     lattice parameter (alat)  =       7.8370  a.u.
     unit-cell volume          =     120.3343 (a.u.)^3
     number of atoms/cell      =            4
     number of atomic types    =            3
     number of electrons       =        48.00 (up:  24.00, down:  24.00)
     number of Kohn-Sham states=           32
     kinetic-energy cutoff     =      70.0000  Ry
     charge density cutoff     =     700.0000  Ry
     scf convergence threshold =      1.0E-09
     mixing beta               =       0.3000
     number of iterations used =            8  plain     mixing
     Exchange-correlation= SLA  PW   PSX  PSC
                           (   1   4  10   8   0   0   0)
     Hubbard projectors: ortho-atomic
     Hubbard parameters of DFT+U (Dudarev formulation) in eV:
     U(Ni1-3d) =  4.6000
     U(Ni2-3d) =  4.6000

     Internal variables: lda_plus_u =T, lda_plus_u_kind = 0

     Internal variables: orbital_resolved =F, hub_pot_fix =F, apply_U = F

     celldm(1)=   7.837000  celldm(2)=   0.000000  celldm(3)=   0.000000
     celldm(4)=   0.000000  celldm(5)=   0.000000  celldm(6)=   0.000000

     crystal axes: (cart. coord. in units of alat)
               a(1) = (  -0.500000   0.000000   0.500000 )  
               a(2) = (   0.000000   0.500000   0.500000 )  
               a(3) = (  -0.500000   0.500000   0.000000 )  

     reciprocal axes: (cart. coord. in units 2 pi/alat)
               b(1) = ( -1.000000 -1.000000  1.000000 )  
               b(2) = (  1.000000  1.000000  1.000000 )  
               b(3) = ( -1.000000  1.000000 -1.000000 )  


     PseudoPot. # 1 for Ni read from file:
     /Users/kirill/Documents/dft/volume/NiO_calibr/ecutwfc/../../../pot/Ni.pbesol-spn-rrkjus_psl.1.0.0.UPF
     MD5 check sum: 6fc0a587bf949a08f2faed986b854013
     Pseudo is Ultrasoft + core correction, Zval = 18.0
     Generated using &quot;atomic&quot; code by A. Dal Corso  v.6.3
     Using radial grid of 1195 points,  6 beta functions with: 
                l(1) =   0
                l(2) =   0
                l(3) =   1
                l(4) =   1
                l(5) =   2
                l(6) =   2
     Q(r) pseudized with 0 coefficients 


     PseudoPot. # 2 for Ni read from file:
     /Users/kirill/Documents/dft/volume/NiO_calibr/ecutwfc/../../../pot/Ni.pbesol-spn-rrkjus_psl.1.0.0.UPF
     MD5 check sum: 6fc0a587bf949a08f2faed986b854013
     Pseudo is Ultrasoft + core correction, Zval = 18.0
     Generated using &quot;atomic&quot; code by A. Dal Corso  v.6.3
     Using radial grid of 1195 points,  6 beta functions with: 
                l(1) =   0
                l(2) =   0
                l(3) =   1
                l(4) =   1
                l(5) =   2
                l(6) =   2
     Q(r) pseudized with 0 coefficients 


     PseudoPot. # 3 for O  read from file:
     /Users/kirill/Documents/dft/volume/NiO_calibr/ecutwfc/../../../pot/O.pbesol-n-kjpaw_psl.1.0.0.UPF
     MD5 check sum: cb766521a97cf798d01896eaf7ac9a0a
     Pseudo is Projector augmented-wave + core cor, Zval =  6.0
     Generated using &quot;atomic&quot; code by A. Dal Corso  v.6.3
     Shape of augmentation charge: PSQ
     Using radial grid of 1095 points,  4 beta functions with: 
                l(1) =   0
                l(2) =   0
                l(3) =   1
                l(4) =   1
     Q(r) pseudized with 0 coefficients 


     atomic species   valence    mass     pseudopotential
     Ni1              18.00    58.69340     Ni( 1.00)
     Ni2              18.00    58.69340     Ni( 1.00)
     O                 6.00    15.99900     O ( 1.00)

     Starting magnetic structure 
     atomic species   magnetization
     Ni1             0.500
     Ni2            -0.500
     O               0.000

     48 Sym. Ops., with inversion, found



   Cartesian axes

     site n.     atom                  positions (alat units)
         1        Ni1    tau(   1) = (   0.0000000   0.0000000   0.0000000  )
         2        Ni2    tau(   2) = (   0.5000000   0.5000000   0.5000000  )
         3        O      tau(   3) = (   0.2500000   0.2500000   0.2500000  )
         4        O      tau(   4) = (   0.7500000   0.7500000   0.7500000  )

     number of k points=     8
                       cart. coord. in units 2pi/alat
        k(    1) = (   0.0000000   0.0000000   0.0000000), wk =   0.0156250
        k(    2) = (  -0.2500000   0.2500000  -0.2500000), wk =   0.1250000
        k(    3) = (   0.5000000  -0.5000000   0.5000000), wk =   0.0625000
        k(    4) = (   0.0000000   0.5000000   0.0000000), wk =   0.0937500
        k(    5) = (   0.7500000  -0.2500000   0.7500000), wk =   0.3750000
        k(    6) = (   0.5000000   0.0000000   0.5000000), wk =   0.1875000
        k(    7) = (   0.0000000  -1.0000000   0.0000000), wk =   0.0468750
        k(    8) = (  -0.5000000  -1.0000000   0.0000000), wk =   0.0937500

     Dense  grid:    37509 G-vectors     FFT dimensions: (  48,  48,  48)

     Smooth grid:     9505 G-vectors     FFT dimensions: (  30,  30,  30)

     Estimated max dynamical RAM per process >      39.31 MB

     Estimated total dynamical RAM >     196.53 MB
     Generating pointlists ...
     new r_m :   0.1786 (alat units)  1.3998 (a.u.) for type    1
     new r_m :   0.1786 (alat units)  1.3998 (a.u.) for type    2
     new r_m :   0.1786 (alat units)  1.3998 (a.u.) for type    3

     Initial potential from superposition of free atoms

     starting charge      47.9995, renormalised to      48.0000

     STARTING HUBBARD OCCUPATIONS:

     =================== HUBBARD OCCUPATIONS ===================
     ------------------------ ATOM    1 ------------------------
     Tr[ns(  1)] (up, down, total) =   5.00000  3.00000  8.00000
     Atomic magnetic moment for atom   1 =   2.00000
     SPIN  1
     eigenvalues:
       1.000  1.000  1.000  1.000  1.000
     eigenvectors (columns):
       1.000  0.000  0.000  0.000  0.000
       0.000  1.000  0.000  0.000  0.000
       0.000  0.000  1.000  0.000  0.000
       0.000  0.000  0.000  1.000  0.000
       0.000  0.000  0.000  0.000  1.000
     occupation matrix ns (before diag.):
       1.000  0.000  0.000  0.000  0.000
       0.000  1.000  0.000  0.000  0.000
       0.000  0.000  1.000  0.000  0.000
       0.000  0.000  0.000  1.000  0.000
       0.000  0.000  0.000  0.000  1.000
     SPIN  2
     eigenvalues:
       0.600  0.600  0.600  0.600  0.600
     eigenvectors (columns):
       1.000  0.000  0.000  0.000  0.000
       0.000  1.000  0.000  0.000  0.000
       0.000  0.000  1.000  0.000  0.000
       0.000  0.000  0.000  1.000  0.000
       0.000  0.000  0.000  0.000  1.000
     occupation matrix ns (before diag.):
       0.600  0.000  0.000  0.000  0.000
       0.000  0.600  0.000  0.000  0.000
       0.000  0.000  0.600  0.000  0.000
       0.000  0.000  0.000  0.600  0.000
       0.000  0.000  0.000  0.000  0.600
     ------------------------ ATOM    2 ------------------------
     Tr[ns(  2)] (up, down, total) =   3.00000  5.00000  8.00000
     Atomic magnetic moment for atom   2 =  -2.00000
     SPIN  1
     eigenvalues:
       0.600  0.600  0.600  0.600  0.600
     eigenvectors (columns):
       1.000  0.000  0.000  0.000  0.000
       0.000  1.000  0.000  0.000  0.000
       0.000  0.000  1.000  0.000  0.000
       0.000  0.000  0.000  1.000  0.000
       0.000  0.000  0.000  0.000  1.000
     occupation matrix ns (before diag.):
       0.600  0.000  0.000  0.000  0.000
       0.000  0.600  0.000  0.000  0.000
       0.000  0.000  0.600  0.000  0.000
       0.000  0.000  0.000  0.600  0.000
       0.000  0.000  0.000  0.000  0.600
     SPIN  2
     eigenvalues:
       1.000  1.000  1.000  1.000  1.000
     eigenvectors (columns):
       1.000  0.000  0.000  0.000  0.000
       0.000  1.000  0.000  0.000  0.000
       0.000  0.000  1.000  0.000  0.000
       0.000  0.000  0.000  1.000  0.000
       0.000  0.000  0.000  0.000  1.000
     occupation matrix ns (before diag.):
       1.000  0.000  0.000  0.000  0.000
       0.000  1.000  0.000  0.000  0.000
       0.000  0.000  1.000  0.000  0.000
       0.000  0.000  0.000  1.000  0.000
       0.000  0.000  0.000  0.000  1.000

     Number of occupied Hubbard levels =   16.0000

     Atomic wfc used for Hubbard projectors are orthogonalized

     Starting wfcs are   28 randomized atomic wfcs +    4 random wfcs
     Checking if some PAW data can be deallocated... 

     total cpu time spent up to now is        0.6 secs

     Self-consistent Calculation

     iteration #  1     ecut=    70.00 Ry     beta= 0.30
     Davidson diagonalization with overlap
     ethr =  1.00E-02,  avg # of iterations =  5.5

     =================== HUBBARD OCCUPATIONS ===================
     ------------------------ ATOM    1 ------------------------
     Tr[ns(  1)] (up, down, total) =   4.97033  3.26145  8.23178
     Atomic magnetic moment for atom   1 =   1.70888
     SPIN  1
     eigenvalues:
       0.993  0.993  0.993  0.995  0.995
     eigenvectors (columns):
      -0.000 -0.000  0.000 -0.234  0.972
      -0.279 -0.913  0.299 -0.000 -0.000
      -0.604 -0.075 -0.793 -0.000 -0.000
       0.000  0.000 -0.000 -0.972 -0.234
       0.746 -0.402 -0.530  0.000  0.000
     occupation matrix ns (before diag.):
       0.995 -0.000 -0.000 -0.000  0.000
      -0.000  0.993 -0.000  0.000  0.000
      -0.000 -0.000  0.993  0.000  0.000
      -0.000  0.000  0.000  0.995 -0.000
       0.000  0.000  0.000 -0.000  0.993
     SPIN  2
     eigenvalues:
       0.497  0.497  0.497  0.886  0.886
     eigenvectors (columns):
      -0.000  0.000  0.000 -0.352  0.936
      -0.273  0.922  0.275 -0.000 -0.000
      -0.600  0.060 -0.798 -0.000 -0.000
       0.000 -0.000 -0.000 -0.936 -0.352
       0.752  0.383 -0.536  0.000  0.000
     occupation matrix ns (before diag.):
       0.886 -0.000 -0.000 -0.000  0.000
      -0.000  0.497 -0.000  0.000  0.000
      -0.000 -0.000  0.497  0.000  0.000
      -0.000  0.000  0.000  0.886 -0.000
       0.000  0.000  0.000 -0.000  0.497
     ------------------------ ATOM    2 ------------------------
     Tr[ns(  2)] (up, down, total) =   3.26141  4.97033  8.23173
     Atomic magnetic moment for atom   2 =  -1.70892
     SPIN  1
     eigenvalues:
       0.497  0.497  0.497  0.886  0.886
     eigenvectors (columns):
      -0.000 -0.000  0.000 -0.316  0.949
      -0.277 -0.942  0.187 -0.000 -0.000
      -0.580  0.009 -0.815 -0.000 -0.000
       0.000  0.000 -0.000 -0.949 -0.316
       0.766 -0.335 -0.549  0.000  0.000
     occupation matrix ns (before diag.):
       0.886 -0.000 -0.000 -0.000  0.000
      -0.000  0.497 -0.000  0.000  0.000
      -0.000 -0.000  0.497  0.000  0.000
      -0.000  0.000  0.000  0.886 -0.000
       0.000  0.000  0.000 -0.000  0.497
     SPIN  2
     eigenvalues:
       0.993  0.993  0.993  0.995  0.995
     eigenvectors (columns):
      -0.000 -0.000 -0.000  0.201 -0.980
      -0.269 -0.871 -0.412  0.000  0.000
      -0.616 -0.174  0.768  0.000  0.000
       0.000  0.000  0.000  0.980  0.201
       0.740 -0.460  0.490 -0.000 -0.000
     occupation matrix ns (before diag.):
       0.995 -0.000 -0.000 -0.000  0.000
      -0.000  0.993 -0.000  0.000  0.000
      -0.000 -0.000  0.993  0.000  0.000
      -0.000  0.000  0.000  0.995 -0.000
       0.000  0.000  0.000 -0.000  0.993

     Number of occupied Hubbard levels =   16.4635

     total cpu time spent up to now is        1.1 secs

     total energy              =    -758.08764626 Ry
     estimated scf accuracy    <       3.83702104 Ry

     total magnetization       =     0.00 Bohr mag/cell
     absolute magnetization    =     4.06 Bohr mag/cell

     iteration #  2     ecut=    70.00 Ry     beta= 0.30
     Davidson diagonalization with overlap
     ethr =  7.99E-03,  avg # of iterations =  1.0

     total cpu time spent up to now is        1.4 secs

     total energy              =    -758.89190252 Ry
     estimated scf accuracy    <       2.00052198 Ry

     total magnetization       =    -0.00 Bohr mag/cell
     absolute magnetization    =     3.41 Bohr mag/cell

     iteration #  3     ecut=    70.00 Ry     beta= 0.30
     Davidson diagonalization with overlap
     ethr =  4.17E-03,  avg # of iterations =  1.0

     total cpu time spent up to now is        1.7 secs

     total energy              =    -759.21261801 Ry
     estimated scf accuracy    <       0.61325906 Ry

     total magnetization       =     0.00 Bohr mag/cell
     absolute magnetization    =     2.93 Bohr mag/cell

     iteration #  4     ecut=    70.00 Ry     beta= 0.30
     Davidson diagonalization with overlap
     ethr =  1.28E-03,  avg # of iterations =  1.6

     total cpu time spent up to now is        2.1 secs

     total energy              =    -759.26335541 Ry
     estimated scf accuracy    <       0.06445876 Ry

     total magnetization       =    -0.00 Bohr mag/cell
     absolute magnetization    =     2.19 Bohr mag/cell

     iteration #  5     ecut=    70.00 Ry     beta= 0.30
     Davidson diagonalization with overlap
     ethr =  1.34E-04,  avg # of iterations =  2.1

     total cpu time spent up to now is        2.4 secs

     total energy              =    -759.28104281 Ry
     estimated scf accuracy    <       0.01276161 Ry

     total magnetization       =    -0.00 Bohr mag/cell
     absolute magnetization    =     1.72 Bohr mag/cell

     iteration #  6     ecut=    70.00 Ry     beta= 0.30
     Davidson diagonalization with overlap
     ethr =  2.66E-05,  avg # of iterations =  3.3

     total cpu time spent up to now is        2.8 secs

     total energy              =    -759.28662922 Ry
     estimated scf accuracy    <       0.00915561 Ry

     total magnetization       =     0.00 Bohr mag/cell
     absolute magnetization    =     1.71 Bohr mag/cell

     iteration #  7     ecut=    70.00 Ry     beta= 0.30
     Davidson diagonalization with overlap
     ethr =  1.91E-05,  avg # of iterations =  1.9

     total cpu time spent up to now is        3.1 secs

     total energy              =    -759.28624590 Ry
     estimated scf accuracy    <       0.00919067 Ry

     total magnetization       =     0.00 Bohr mag/cell
     absolute magnetization    =     1.62 Bohr mag/cell

     iteration #  8     ecut=    70.00 Ry     beta= 0.30
     Davidson diagonalization with overlap
     ethr =  1.91E-05,  avg # of iterations =  1.2

     total cpu time spent up to now is        3.5 secs

     total energy              =    -759.28777799 Ry
     estimated scf accuracy    <       0.00066635 Ry

     total magnetization       =     0.00 Bohr mag/cell
     absolute magnetization    =     1.49 Bohr mag/cell

     iteration #  9     ecut=    70.00 Ry     beta= 0.30
     Davidson diagonalization with overlap
     ethr =  1.39E-06,  avg # of iterations =  2.9

     total cpu time spent up to now is        3.9 secs

     total energy              =    -759.28828113 Ry
     estimated scf accuracy    <       0.00015920 Ry

     total magnetization       =     0.00 Bohr mag/cell
     absolute magnetization    =     1.40 Bohr mag/cell

     iteration # 10     ecut=    70.00 Ry     beta= 0.30
     Davidson diagonalization with overlap
     ethr =  3.32E-07,  avg # of iterations =  2.1

     total cpu time spent up to now is        4.2 secs

     total energy              =    -759.28826238 Ry
     estimated scf accuracy    <       0.00007991 Ry

     total magnetization       =     0.00 Bohr mag/cell
     absolute magnetization    =     1.35 Bohr mag/cell

     iteration # 11     ecut=    70.00 Ry     beta= 0.30
     Davidson diagonalization with overlap
     ethr =  1.66E-07,  avg # of iterations =  3.9

     total cpu time spent up to now is        4.6 secs

     total energy              =    -759.28848295 Ry
     estimated scf accuracy    <       0.00000291 Ry

     total magnetization       =     0.00 Bohr mag/cell
     absolute magnetization    =     1.28 Bohr mag/cell

     iteration # 12     ecut=    70.00 Ry     beta= 0.30
     Davidson diagonalization with overlap
     ethr =  6.05E-09,  avg # of iterations =  5.6

     total cpu time spent up to now is        5.1 secs

     total energy              =    -759.28848532 Ry
     estimated scf accuracy    <       0.00000016 Ry

     total magnetization       =    -0.00 Bohr mag/cell
     absolute magnetization    =     1.28 Bohr mag/cell

     iteration # 13     ecut=    70.00 Ry     beta= 0.30
     Davidson diagonalization with overlap
     ethr =  3.43E-10,  avg # of iterations =  3.6

     total cpu time spent up to now is        5.5 secs

     total energy              =    -759.28848560 Ry
     estimated scf accuracy    <       0.00000023 Ry

     total magnetization       =     0.00 Bohr mag/cell
     absolute magnetization    =     1.28 Bohr mag/cell

     iteration # 14     ecut=    70.00 Ry     beta= 0.30
     Davidson diagonalization with overlap
     ethr =  3.43E-10,  avg # of iterations =  1.6

     total cpu time spent up to now is        5.9 secs

     total energy              =    -759.28848567 Ry
     estimated scf accuracy    <       0.00000002 Ry

     total magnetization       =    -0.00 Bohr mag/cell
     absolute magnetization    =     1.28 Bohr mag/cell

     iteration # 15     ecut=    70.00 Ry     beta= 0.30
     Davidson diagonalization with overlap
     ethr =  4.91E-11,  avg # of iterations =  2.4

     total cpu time spent up to now is        6.2 secs

     total energy              =    -759.28848567 Ry
     estimated scf accuracy    <          6.6E-09 Ry

     total magnetization       =    -0.00 Bohr mag/cell
     absolute magnetization    =     1.28 Bohr mag/cell

     iteration # 16     ecut=    70.00 Ry     beta= 0.30
     Davidson diagonalization with overlap
     ethr =  1.37E-11,  avg # of iterations =  3.3

     total cpu time spent up to now is        6.7 secs

     total energy              =    -759.28848568 Ry
     estimated scf accuracy    <          4.1E-09 Ry

     total magnetization       =    -0.00 Bohr mag/cell
     absolute magnetization    =     1.28 Bohr mag/cell

     iteration # 17     ecut=    70.00 Ry     beta= 0.30
     Davidson diagonalization with overlap
     ethr =  8.54E-12,  avg # of iterations =  1.2

     Magnetic moment per site  (integrated on atomic sphere of radius R)
     atom   1 (R=0.179)  charge= 15.3705  magn=  0.5847
     atom   2 (R=0.179)  charge= 15.3705  magn= -0.5847
     atom   3 (R=0.179)  charge=  5.4293  magn= -0.0000
     atom   4 (R=0.179)  charge=  5.4293  magn= -0.0000

     total cpu time spent up to now is        7.0 secs

     End of self-consistent calculation

     =================== HUBBARD OCCUPATIONS ===================
     ------------------------ ATOM    1 ------------------------
     Tr[ns(  1)] (up, down, total) =   4.66243  4.09573  8.75816
     Atomic magnetic moment for atom   1 =   0.56670
     SPIN  1
     eigenvalues:
       0.900  0.900  0.900  0.982  0.982
     eigenvectors (columns):
      -0.000 -0.000  0.000  0.200 -0.980
      -0.282 -0.957  0.071  0.000  0.000
      -0.607  0.121 -0.786  0.000  0.000
       0.000  0.000 -0.000  0.980  0.200
       0.743 -0.265 -0.615 -0.000 -0.000
     occupation matrix ns (before diag.):
       0.982 -0.000 -0.000 -0.000  0.000
      -0.000  0.900 -0.000  0.000  0.000
      -0.000 -0.000  0.900  0.000  0.000
      -0.000  0.000  0.000  0.982 -0.000
       0.000  0.000  0.000 -0.000  0.900
     SPIN  2
     eigenvalues:
       0.719  0.719  0.719  0.970  0.970
     eigenvectors (columns):
      -0.000 -0.000  0.000  0.873  0.489
      -0.273 -0.941  0.199 -0.000 -0.000
      -0.630  0.019 -0.776  0.000 -0.000
       0.000  0.000 -0.000  0.489 -0.873
       0.727 -0.337 -0.598  0.000  0.000
     occupation matrix ns (before diag.):
       0.970 -0.000 -0.000 -0.000  0.000
      -0.000  0.719 -0.000  0.000  0.000
      -0.000 -0.000  0.719  0.000  0.000
      -0.000  0.000  0.000  0.970 -0.000
       0.000  0.000  0.000 -0.000  0.719
     ------------------------ ATOM    2 ------------------------
     Tr[ns(  2)] (up, down, total) =   4.09573  4.66243  8.75816
     Atomic magnetic moment for atom   2 =  -0.56670
     SPIN  1
     eigenvalues:
       0.719  0.719  0.719  0.970  0.970
     eigenvectors (columns):
      -0.000  0.000  0.000 -0.492  0.871
      -0.293  0.928  0.230 -0.000 -0.000
      -0.616  0.001 -0.788 -0.000 -0.000
       0.000 -0.000 -0.000 -0.871 -0.492
       0.731  0.372 -0.572  0.000  0.000
     occupation matrix ns (before diag.):
       0.970 -0.000 -0.000 -0.000  0.000
      -0.000  0.719 -0.000  0.000  0.000
      -0.000 -0.000  0.719  0.000  0.000
      -0.000  0.000  0.000  0.970 -0.000
       0.000  0.000  0.000 -0.000  0.719
     SPIN  2
     eigenvalues:
       0.900  0.900  0.900  0.982  0.982
     eigenvectors (columns):
      -0.000  0.000 -0.000  0.209 -0.978
      -0.265 -0.578 -0.772  0.000  0.000
      -0.602 -0.526  0.601  0.000  0.000
       0.000 -0.000  0.000  0.978  0.209
       0.753 -0.624  0.209 -0.000 -0.000
     occupation matrix ns (before diag.):
       0.982 -0.000 -0.000 -0.000  0.000
      -0.000  0.900 -0.000  0.000  0.000
      -0.000 -0.000  0.900  0.000  0.000
      -0.000  0.000  0.000  0.982 -0.000
       0.000  0.000  0.000 -0.000  0.900

     Number of occupied Hubbard levels =   17.5163

 ------ SPIN UP ------------


          k = 0.0000 0.0000 0.0000 (  1243 PWs)   bands (ev):

   -69.8366 -68.9461 -30.6279 -30.6279 -30.6279 -29.6184 -29.6184 -29.6184
     5.3738  14.5255  18.8624  18.8624  18.8624  24.7402  24.7402  28.9164
    28.9164  28.9164  31.8426  31.8426  31.8426  33.0249  33.0249  36.7687
    36.7687  36.7687  43.9707  43.9707  43.9707  44.1689  55.4368  55.4368

          k =-0.2500 0.2500-0.2500 (  1197 PWs)   bands (ev):

   -69.8132 -68.9643 -30.6115 -30.5871 -30.5871 -29.7094 -29.6804 -29.6804
     6.5826  11.8902  19.9187  19.9187  22.8875  24.1458  24.1458  25.9823
    28.6311  28.6311  31.1955  31.1955  32.2898  32.6893  32.6893  33.8521
    35.8428  35.8428  46.0023  46.2726  47.9401  47.9401  55.7537  55.7537

          k = 0.5000-0.5000 0.5000 (  1194 PWs)   bands (ev):

   -69.7899 -68.9843 -30.5911 -30.5399 -30.5399 -29.8051 -29.7498 -29.7498
     9.1000   9.1756  22.1553  22.1553  22.5427  22.5427  24.7723  24.9112
    28.4830  28.4830  29.2131  29.2131  31.3856  32.8062  33.9193  33.9193
    34.9666  34.9666  47.3075  47.4133  54.5826  54.5826  54.6274  54.6274

          k = 0.0000 0.5000 0.0000 (  1198 PWs)   bands (ev):

   -69.8133 -68.9694 -30.6779 -30.6779 -30.5787 -29.7544 -29.5934 -29.5934
     6.9889  11.5083  20.1616  20.1616  21.5409  24.2184  25.3333  26.7876
    26.7876  29.1329  30.1868  31.9712  32.7633  32.7633  32.9653  34.5421
    34.5421  35.8294  45.4681  46.3203  49.2765  49.2765  53.8578  55.6065

          k = 0.7500-0.2500 0.7500 (  1194 PWs)   bands (ev):

   -69.7985 -68.9883 -30.7325 -30.6611 -30.6444 -29.6681 -29.6484 -29.6211
     8.9054   9.9494  19.4968  21.0250  21.7305  24.2776  26.2477  26.7460
    27.0706  27.8117  30.5176  30.8118  31.3689  32.3357  32.7727  33.9767
    35.0740  35.7300  46.9028  48.2948  52.7188  52.9600  53.9605  55.0736

          k = 0.5000 0.0000 0.5000 (  1195 PWs)   bands (ev):

   -69.7980 -68.9829 -30.7378 -30.5786 -30.5438 -29.7810 -29.7450 -29.5697
     8.1439  10.4748  19.8385  21.6373  21.9372  22.9699  26.5008  26.9782
    27.0946  28.5119  30.1747  30.8762  31.1272  31.2720  33.0739  33.9292
    34.8668  36.3959  47.6309  47.7572  50.5726  51.7839  54.7789  56.2723

          k = 0.0000-1.0000 0.0000 (  1162 PWs)   bands (ev):

   -69.8072 -68.9918 -30.8673 -30.7303 -30.7303 -29.5648 -29.5648 -29.5140
     9.4327   9.9590  17.4014  21.9483  21.9483  25.4704  25.4704  25.9855
    26.3640  29.9912  29.9912  30.7503  31.5074  32.7877  32.9058  33.0131
    36.1471  36.1471  46.0768  48.3813  52.0847  52.3343  54.4997  54.4997

          k =-0.5000-1.0000 0.0000 (  1176 PWs)   bands (ev):

   -69.7987 -68.9937 -30.7991 -30.7991 -30.5516 -29.7621 -29.5413 -29.5413
     9.6638   9.6638  19.2344  19.2661  23.6511  23.6511  26.4325  26.7978
    26.8916  27.2440  30.8808  30.8808  32.5110  32.5589  33.9334  33.9684
    33.9684  34.7606  48.2645  48.2981  51.2476  51.2476  57.0106  57.0106

 ------ SPIN DOWN ----------


          k = 0.0000 0.0000 0.0000 (  1243 PWs)   bands (ev):

   -69.8366 -68.9461 -30.6279 -30.6279 -30.6279 -29.6184 -29.6184 -29.6184
     5.3738  14.5255  18.8624  18.8624  18.8624  24.7402  24.7402  28.9164
    28.9164  28.9164  31.8426  31.8426  31.8426  33.0249  33.0249  36.7687
    36.7687  36.7687  43.9707  43.9707  43.9707  44.1689  55.4368  55.4368

          k =-0.2500 0.2500-0.2500 (  1197 PWs)   bands (ev):

   -69.8132 -68.9643 -30.6115 -30.5871 -30.5871 -29.7094 -29.6804 -29.6804
     6.5826  11.8902  19.9187  19.9187  22.8875  24.1458  24.1458  25.9823
    28.6311  28.6311  31.1955  31.1955  32.2898  32.6893  32.6893  33.8521
    35.8428  35.8428  46.0023  46.2726  47.9401  47.9401  55.7537  55.7537

          k = 0.5000-0.5000 0.5000 (  1194 PWs)   bands (ev):

   -69.7899 -68.9843 -30.5911 -30.5399 -30.5399 -29.8051 -29.7498 -29.7498
     9.1000   9.1756  22.1553  22.1553  22.5427  22.5427  24.7723  24.9112
    28.4830  28.4830  29.2131  29.2131  31.3856  32.8062  33.9193  33.9193
    34.9666  34.9666  47.3075  47.4133  54.5826  54.5826  54.6274  54.6274

          k = 0.0000 0.5000 0.0000 (  1198 PWs)   bands (ev):

   -69.8133 -68.9694 -30.6779 -30.6779 -30.5787 -29.7544 -29.5934 -29.5934
     6.9889  11.5083  20.1616  20.1616  21.5409  24.2184  25.3333  26.7876
    26.7876  29.1329  30.1868  31.9712  32.7633  32.7633  32.9653  34.5421
    34.5421  35.8294  45.4681  46.3203  49.2765  49.2765  53.8578  55.6065

          k = 0.7500-0.2500 0.7500 (  1194 PWs)   bands (ev):

   -69.7985 -68.9883 -30.7325 -30.6611 -30.6444 -29.6681 -29.6484 -29.6211
     8.9054   9.9494  19.4968  21.0250  21.7305  24.2776  26.2477  26.7460
    27.0706  27.8117  30.5176  30.8118  31.3689  32.3357  32.7727  33.9767
    35.0740  35.7300  46.9028  48.2948  52.7188  52.9600  53.9605  55.0736

          k = 0.5000 0.0000 0.5000 (  1195 PWs)   bands (ev):

   -69.7980 -68.9829 -30.7379 -30.5786 -30.5438 -29.7810 -29.7450 -29.5697
     8.1439  10.4748  19.8385  21.6373  21.9372  22.9699  26.5008  26.9782
    27.0946  28.5119  30.1747  30.8762  31.1272  31.2720  33.0739  33.9292
    34.8668  36.3959  47.6309  47.7572  50.5726  51.7839  54.7789  56.2723

          k = 0.0000-1.0000 0.0000 (  1162 PWs)   bands (ev):

   -69.8072 -68.9918 -30.8673 -30.7303 -30.7303 -29.5648 -29.5648 -29.5140
     9.4327   9.9590  17.4014  21.9482  21.9482  25.4704  25.4704  25.9855
    26.3640  29.9912  29.9912  30.7503  31.5074  32.7877  32.9058  33.0131
    36.1471  36.1471  46.0768  48.3813  52.0847  52.3343  54.4997  54.4997

          k =-0.5000-1.0000 0.0000 (  1176 PWs)   bands (ev):

   -69.7987 -68.9937 -30.7991 -30.7991 -30.5516 -29.7621 -29.5413 -29.5413
     9.6638   9.6638  19.2344  19.2661  23.6511  23.6511  26.4325  26.7978
    26.8916  27.2440  30.8808  30.8808  32.5110  32.5589  33.9334  33.9684
    33.9684  34.7606  48.2645  48.2981  51.2476  51.2476  57.0106  57.0107

     highest occupied, lowest unoccupied level (ev):    36.7687   33.9684

!    total energy              =    -759.28848569 Ry
     estimated scf accuracy    <          1.2E-10 Ry

     The total energy is the sum of the following terms:
     one-electron contribution =    -217.45900491 Ry
     hartree contribution      =     171.38947377 Ry
     xc contribution           =     -85.40481867 Ry
     ewald contribution        =    -609.74621010 Ry
     Hubbard energy            =       0.32857001 Ry
     one-center paw contrib.   =     -18.39649580 Ry

     total magnetization       =     0.00 Bohr mag/cell
     absolute magnetization    =     1.28 Bohr mag/cell

     convergence has been achieved in  17 iterations

     Writing all to output data dir /Users/kirill/Documents/dft/volume/NiO_calibr/ecutwfc/out/NiO.save/ :
     XML data file, charge density, pseudopotentials, collected wavefunctions

     init_run     :      0.37s CPU      0.41s WALL (       1 calls)
     electrons    :      6.33s CPU      6.42s WALL (       1 calls)

     Called by init_run:
     wfcinit      :      0.08s CPU      0.08s WALL (       1 calls)
     potinit      :      0.09s CPU      0.12s WALL (       1 calls)
     hinit0       :      0.15s CPU      0.15s WALL (       1 calls)

     Called by electrons:
     c_bands      :      3.70s CPU      3.76s WALL (      17 calls)
     sum_band     :      1.26s CPU      1.27s WALL (      17 calls)
     v_of_rho     :      0.29s CPU      0.30s WALL (      18 calls)
     newd         :      0.39s CPU      0.40s WALL (      18 calls)
     PAW_pot      :      0.74s CPU      0.77s WALL (      18 calls)
     mix_rho      :      0.03s CPU      0.03s WALL (      17 calls)

     Called by c_bands:
     init_us_2    :      0.03s CPU      0.03s WALL (     576 calls)
     cegterg      :      3.61s CPU      3.67s WALL (     272 calls)

     Called by *egterg:
     cdiaghg      :      0.74s CPU      0.74s WALL (     979 calls)
     h_psi        :      2.57s CPU      2.62s WALL (     995 calls)
     s_psi        :      0.06s CPU      0.06s WALL (    1011 calls)
     g_psi        :      0.00s CPU      0.01s WALL (     707 calls)

     Called by h_psi:
     h_psi:calbec :      0.09s CPU      0.09s WALL (     995 calls)
     vloc_psi     :      2.32s CPU      2.37s WALL (     995 calls)
                                        0.00s GPU  (     995 calls)
     add_vuspsi   :      0.06s CPU      0.06s WALL (     995 calls)
     vhpsi        :      0.09s CPU      0.09s WALL (     995 calls)

     General routines
     calbec       :      0.18s CPU      0.19s WALL (    2550 calls)
     fft          :      0.18s CPU      0.18s WALL (     444 calls)
     ffts         :      0.01s CPU      0.01s WALL (      70 calls)
     fftw         :      2.67s CPU      2.72s WALL (   50416 calls)
     interpolate  :      0.02s CPU      0.02s WALL (      36 calls)

     Parallel routines

     Hubbard U routines
     new_ns       :      0.02s CPU      0.02s WALL (      17 calls)
     vhpsi        :      0.09s CPU      0.09s WALL (     995 calls)

     PWSCF        :      6.87s CPU      7.01s WALL


   This run was terminated on:  17:56:24  24Mar2026            

=------------------------------------------------------------------------------=
   JOB DONE.
=------------------------------------------------------------------------------=
