
     Program PWSCF v.7.5 starts on 25Feb2026 at 15:34:50 

     This program is part of the open-source Quantum ESPRESSO suite
     for quantum simulation of materials; please cite
         "P. Giannozzi et al., J. Phys.:Condens. Matter 21 395502 (2009);
         "P. Giannozzi et al., J. Phys.:Condens. Matter 29 465901 (2017);
         "P. Giannozzi et al., J. Chem. Phys. 152 154105 (2020);
          URL http://www.quantum-espresso.org", 
     in publications or presentations arising from this work. More details at
     http://www.quantum-espresso.org/quote

     Parallel version (MPI), running on     5 processors

     MPI processes distributed on     1 nodes
     0 MiB available memory on the printing compute node when the environment starts

     Reading input from NiO.scf.in
Warning: card &CELL ignored
Warning: card     CELL_DOFREE='IBRAV' ignored

     Current dimensions of program PWSCF are:
     Max number of different atomic species (ntypx) = 10
     Max number of k-points (npk) =  40000
     Max angular momentum in pseudopotentials (lmaxx) =  4
     file Ni.pbesol-n-rrkjus_psl.0.1.UPF: wavefunction(s)  3D renormalized
     file Ni.pbesol-n-rrkjus_psl.0.1.UPF: wavefunction(s)  3D renormalized

     R & G space division:  proc/nbgrp/npool/nimage =       5
     Subspace diagonalization in iterative solution of the eigenvalue problem:
     a serial algorithm will be used


     Parallelization info
     --------------------
     sticks:   dense  smooth     PW     G-vecs:    dense   smooth      PW
     Min         296     117     37                 7500     1901     327
     Max         297     121     38                 7503     1901     329
     Sum        1483     595    187                37509     9505    1639

     Using Slab Decomposition



     bravais-lattice index     =            2
     lattice parameter (alat)  =       7.8370  a.u.
     unit-cell volume          =     120.3343 (a.u.)^3
     number of atoms/cell      =            4
     number of atomic types    =            3
     number of electrons       =        32.00 (up:  16.00, down:  16.00)
     number of Kohn-Sham states=           32
     kinetic-energy cutoff     =      70.0000  Ry
     charge density cutoff     =     700.0000  Ry
     scf convergence threshold =      1.0E-09
     mixing beta               =       0.3000
     number of iterations used =            8  plain     mixing
     Exchange-correlation= PBESOL
                           (   1   4  10   8   0   0   0)
     Hubbard projectors: ortho-atomic
     Hubbard parameters of DFT+U (Dudarev formulation) in eV:
     U(Ni1-3d) =  4.6000
     U(Ni2-3d) =  4.6000

     Internal variables: lda_plus_u =T, lda_plus_u_kind = 0

     Internal variables: orbital_resolved =F, hub_pot_fix =F, apply_U = F

     celldm(1)=   7.837000  celldm(2)=   0.000000  celldm(3)=   0.000000
     celldm(4)=   0.000000  celldm(5)=   0.000000  celldm(6)=   0.000000

     crystal axes: (cart. coord. in units of alat)
               a(1) = (  -0.500000   0.000000   0.500000 )  
               a(2) = (   0.000000   0.500000   0.500000 )  
               a(3) = (  -0.500000   0.500000   0.000000 )  

     reciprocal axes: (cart. coord. in units 2 pi/alat)
               b(1) = ( -1.000000 -1.000000  1.000000 )  
               b(2) = (  1.000000  1.000000  1.000000 )  
               b(3) = ( -1.000000  1.000000 -1.000000 )  


     PseudoPot. # 1 for Ni read from file:
     /Users/kirill/Documents/dft/volume/NiO_calibr/ecutwfc/../../../pot/Ni.pbesol-n-rrkjus_psl.0.1.UPF
     MD5 check sum: 8a65ecc087b22b902f7e15bb4f925df7
     Pseudo is Ultrasoft + core correction, Zval = 10.0
     Generated using "atomic" code by A. Dal Corso  v.5.0.2 svn rev. 9415
     Using radial grid of 1195 points,  6 beta functions with: 
                l(1) =   0
                l(2) =   0
                l(3) =   1
                l(4) =   1
                l(5) =   2
                l(6) =   2
     Q(r) pseudized with 0 coefficients 


     PseudoPot. # 2 for Ni read from file:
     /Users/kirill/Documents/dft/volume/NiO_calibr/ecutwfc/../../../pot/Ni.pbesol-n-rrkjus_psl.0.1.UPF
     MD5 check sum: 8a65ecc087b22b902f7e15bb4f925df7
     Pseudo is Ultrasoft + core correction, Zval = 10.0
     Generated using "atomic" code by A. Dal Corso  v.5.0.2 svn rev. 9415
     Using radial grid of 1195 points,  6 beta functions with: 
                l(1) =   0
                l(2) =   0
                l(3) =   1
                l(4) =   1
                l(5) =   2
                l(6) =   2
     Q(r) pseudized with 0 coefficients 


     PseudoPot. # 3 for O  read from file:
     /Users/kirill/Documents/dft/volume/NiO_calibr/ecutwfc/../../../pot/O.pbesol-n-rrkjus_psl.1.0.0.UPF
     MD5 check sum: 69b2cf9905362d8720b1d83b4ba3171b
     Pseudo is Ultrasoft + core correction, Zval =  6.0
     Generated using &quot;atomic&quot; code by A. Dal Corso  v.6.3MaX
     Using radial grid of 1095 points,  4 beta functions with: 
                l(1) =   0
                l(2) =   0
                l(3) =   1
                l(4) =   1
     Q(r) pseudized with 0 coefficients 


     atomic species   valence    mass     pseudopotential
     Ni1              10.00    58.69340     Ni( 1.00)
     Ni2              10.00    58.69340     Ni( 1.00)
     O                 6.00    15.99900     O ( 1.00)

     Starting magnetic structure 
     atomic species   magnetization
     Ni1             0.500
     Ni2            -0.500
     O               0.000

     48 Sym. Ops., with inversion, found



   Cartesian axes

     site n.     atom                  positions (alat units)
         1        Ni1    tau(   1) = (   0.0000000   0.0000000   0.0000000  )
         2        Ni2    tau(   2) = (   0.5000000   0.5000000   0.5000000  )
         3        O      tau(   3) = (   0.2500000   0.2500000   0.2500000  )
         4        O      tau(   4) = (   0.7500000   0.7500000   0.7500000  )

     number of k points=     8
                       cart. coord. in units 2pi/alat
        k(    1) = (   0.0000000   0.0000000   0.0000000), wk =   0.0156250
        k(    2) = (  -0.2500000   0.2500000  -0.2500000), wk =   0.1250000
        k(    3) = (   0.5000000  -0.5000000   0.5000000), wk =   0.0625000
        k(    4) = (   0.0000000   0.5000000   0.0000000), wk =   0.0937500
        k(    5) = (   0.7500000  -0.2500000   0.7500000), wk =   0.3750000
        k(    6) = (   0.5000000   0.0000000   0.5000000), wk =   0.1875000
        k(    7) = (   0.0000000  -1.0000000   0.0000000), wk =   0.0468750
        k(    8) = (  -0.5000000  -1.0000000   0.0000000), wk =   0.0937500

     Dense  grid:    37509 G-vectors     FFT dimensions: (  48,  48,  48)

     Smooth grid:     9505 G-vectors     FFT dimensions: (  30,  30,  30)

     Estimated max dynamical RAM per process >      39.31 MB

     Estimated total dynamical RAM >     196.53 MB
     Generating pointlists ...
     new r_m :   0.1786 (alat units)  1.3998 (a.u.) for type    1
     new r_m :   0.1786 (alat units)  1.3998 (a.u.) for type    2
     new r_m :   0.1786 (alat units)  1.3998 (a.u.) for type    3

     Initial potential from superposition of free atoms

     starting charge      31.9995, renormalised to      32.0000

     STARTING HUBBARD OCCUPATIONS:

     =================== HUBBARD OCCUPATIONS ===================
     ------------------------ ATOM    1 ------------------------
     Tr[ns(  1)] (up, down, total) =   5.00000  3.00000  8.00000
     Atomic magnetic moment for atom   1 =   2.00000
     SPIN  1
     eigenvalues:
       1.000  1.000  1.000  1.000  1.000
     eigenvectors (columns):
       1.000  0.000  0.000  0.000  0.000
       0.000  1.000  0.000  0.000  0.000
       0.000  0.000  1.000  0.000  0.000
       0.000  0.000  0.000  1.000  0.000
       0.000  0.000  0.000  0.000  1.000
     occupation matrix ns (before diag.):
       1.000  0.000  0.000  0.000  0.000
       0.000  1.000  0.000  0.000  0.000
       0.000  0.000  1.000  0.000  0.000
       0.000  0.000  0.000  1.000  0.000
       0.000  0.000  0.000  0.000  1.000
     SPIN  2
     eigenvalues:
       0.600  0.600  0.600  0.600  0.600
     eigenvectors (columns):
       1.000  0.000  0.000  0.000  0.000
       0.000  1.000  0.000  0.000  0.000
       0.000  0.000  1.000  0.000  0.000
       0.000  0.000  0.000  1.000  0.000
       0.000  0.000  0.000  0.000  1.000
     occupation matrix ns (before diag.):
       0.600  0.000  0.000  0.000  0.000
       0.000  0.600  0.000  0.000  0.000
       0.000  0.000  0.600  0.000  0.000
       0.000  0.000  0.000  0.600  0.000
       0.000  0.000  0.000  0.000  0.600
     ------------------------ ATOM    2 ------------------------
     Tr[ns(  2)] (up, down, total) =   3.00000  5.00000  8.00000
     Atomic magnetic moment for atom   2 =  -2.00000
     SPIN  1
     eigenvalues:
       0.600  0.600  0.600  0.600  0.600
     eigenvectors (columns):
       1.000  0.000  0.000  0.000  0.000
       0.000  1.000  0.000  0.000  0.000
       0.000  0.000  1.000  0.000  0.000
       0.000  0.000  0.000  1.000  0.000
       0.000  0.000  0.000  0.000  1.000
     occupation matrix ns (before diag.):
       0.600  0.000  0.000  0.000  0.000
       0.000  0.600  0.000  0.000  0.000
       0.000  0.000  0.600  0.000  0.000
       0.000  0.000  0.000  0.600  0.000
       0.000  0.000  0.000  0.000  0.600
     SPIN  2
     eigenvalues:
       1.000  1.000  1.000  1.000  1.000
     eigenvectors (columns):
       1.000  0.000  0.000  0.000  0.000
       0.000  1.000  0.000  0.000  0.000
       0.000  0.000  1.000  0.000  0.000
       0.000  0.000  0.000  1.000  0.000
       0.000  0.000  0.000  0.000  1.000
     occupation matrix ns (before diag.):
       1.000  0.000  0.000  0.000  0.000
       0.000  1.000  0.000  0.000  0.000
       0.000  0.000  1.000  0.000  0.000
       0.000  0.000  0.000  1.000  0.000
       0.000  0.000  0.000  0.000  1.000

     Number of occupied Hubbard levels =   16.0000

     Atomic wfc used for Hubbard projectors are orthogonalized

     Starting wfcs are   26 randomized atomic wfcs +    6 random wfcs

     total cpu time spent up to now is        0.4 secs

     Self-consistent Calculation

     iteration #  1     ecut=    70.00 Ry     beta= 0.30
     Davidson diagonalization with overlap
     ethr =  1.00E-02,  avg # of iterations =  7.4

     =================== HUBBARD OCCUPATIONS ===================
     ------------------------ ATOM    1 ------------------------
     Tr[ns(  1)] (up, down, total) =   4.89135  3.54315  8.43450
     Atomic magnetic moment for atom   1 =   1.34820
     SPIN  1
     eigenvalues:
       0.973  0.973  0.973  0.986  0.986
     eigenvectors (columns):
      -0.000  0.000 -0.000  0.158 -0.987
      -0.274 -0.505 -0.818  0.000  0.000
      -0.623 -0.555  0.551  0.000  0.000
       0.000 -0.000  0.000  0.987  0.158
       0.733 -0.661  0.163 -0.000 -0.000
     occupation matrix ns (before diag.):
       0.986 -0.000 -0.000 -0.000  0.000
      -0.000  0.973 -0.000  0.000  0.000
      -0.000 -0.000  0.973  0.000  0.000
      -0.000  0.000  0.000  0.986 -0.000
       0.000  0.000  0.000 -0.000  0.973
     SPIN  2
     eigenvalues:
       0.560  0.560  0.560  0.932  0.932
     eigenvectors (columns):
      -0.000  0.000 -0.000 -0.708  0.706
      -0.255  0.881 -0.399 -0.000 -0.000
      -0.579  0.191  0.793 -0.000 -0.000
       0.000 -0.000  0.000 -0.706 -0.708
       0.774  0.433  0.461  0.000  0.000
     occupation matrix ns (before diag.):
       0.932 -0.000 -0.000 -0.000  0.000
      -0.000  0.560 -0.000  0.000  0.000
      -0.000 -0.000  0.560  0.000  0.000
      -0.000  0.000  0.000  0.932 -0.000
       0.000  0.000  0.000 -0.000  0.560
     ------------------------ ATOM    2 ------------------------
     Tr[ns(  2)] (up, down, total) =   3.54305  4.89139  8.43444
     Atomic magnetic moment for atom   2 =  -1.34834
     SPIN  1
     eigenvalues:
       0.560  0.560  0.560  0.932  0.932
     eigenvectors (columns):
      -0.000 -0.000  0.000 -0.408  0.913
      -0.279 -0.933  0.229 -0.000 -0.000
      -0.607 -0.014 -0.795 -0.000 -0.000
       0.000  0.000 -0.000 -0.913 -0.408
       0.744 -0.361 -0.562  0.000  0.000
     occupation matrix ns (before diag.):
       0.932 -0.000 -0.000 -0.000  0.000
      -0.000  0.560 -0.000  0.000  0.000
      -0.000 -0.000  0.560  0.000  0.000
      -0.000  0.000  0.000  0.932 -0.000
       0.000  0.000  0.000 -0.000  0.560
     SPIN  2
     eigenvalues:
       0.973  0.973  0.973  0.986  0.986
     eigenvectors (columns):
      -0.000 -0.000  0.000 -0.334  0.942
      -0.288 -0.957  0.018 -0.000 -0.000
      -0.597  0.165 -0.785 -0.000 -0.000
       0.000  0.000 -0.000 -0.942 -0.334
       0.749 -0.238 -0.619  0.000  0.000
     occupation matrix ns (before diag.):
       0.986 -0.000 -0.000 -0.000  0.000
      -0.000  0.973 -0.000  0.000  0.000
      -0.000 -0.000  0.973  0.000  0.000
      -0.000  0.000  0.000  0.986 -0.000
       0.000  0.000  0.000 -0.000  0.973

     Number of occupied Hubbard levels =   16.8689

     total cpu time spent up to now is        1.0 secs

     total energy              =    -263.06629299 Ry
     estimated scf accuracy    <       0.74753672 Ry

     total magnetization       =    -0.00 Bohr mag/cell
     absolute magnetization    =     2.97 Bohr mag/cell

     iteration #  2     ecut=    70.00 Ry     beta= 0.30
     Davidson diagonalization with overlap
     ethr =  2.34E-03,  avg # of iterations =  1.6

     total cpu time spent up to now is        1.3 secs

     total energy              =    -263.17631135 Ry
     estimated scf accuracy    <       0.33536434 Ry

     total magnetization       =    -0.00 Bohr mag/cell
     absolute magnetization    =     2.52 Bohr mag/cell

     iteration #  3     ecut=    70.00 Ry     beta= 0.30
     Davidson diagonalization with overlap
     ethr =  1.05E-03,  avg # of iterations =  1.3

     total cpu time spent up to now is        1.5 secs

     total energy              =    -263.23921258 Ry
     estimated scf accuracy    <       0.11383196 Ry

     total magnetization       =    -0.00 Bohr mag/cell
     absolute magnetization    =     2.32 Bohr mag/cell

     iteration #  4     ecut=    70.00 Ry     beta= 0.30
     Davidson diagonalization with overlap
     ethr =  3.56E-04,  avg # of iterations =  1.9

     total cpu time spent up to now is        1.8 secs

     total energy              =    -263.25711738 Ry
     estimated scf accuracy    <       0.03299939 Ry

     total magnetization       =     0.00 Bohr mag/cell
     absolute magnetization    =     1.97 Bohr mag/cell

     iteration #  5     ecut=    70.00 Ry     beta= 0.30
     Davidson diagonalization with overlap
     ethr =  1.03E-04,  avg # of iterations =  3.9

     total cpu time spent up to now is        2.1 secs

     total energy              =    -263.26582493 Ry
     estimated scf accuracy    <       0.00259897 Ry

     total magnetization       =     0.00 Bohr mag/cell
     absolute magnetization    =     1.60 Bohr mag/cell

     iteration #  6     ecut=    70.00 Ry     beta= 0.30
     Davidson diagonalization with overlap
     ethr =  8.12E-06,  avg # of iterations =  4.8

     total cpu time spent up to now is        2.5 secs

     total energy              =    -263.26709294 Ry
     estimated scf accuracy    <       0.00284950 Ry

     total magnetization       =     0.00 Bohr mag/cell
     absolute magnetization    =     1.50 Bohr mag/cell

     iteration #  7     ecut=    70.00 Ry     beta= 0.30
     Davidson diagonalization with overlap
     ethr =  8.12E-06,  avg # of iterations =  1.2

     total cpu time spent up to now is        2.8 secs

     total energy              =    -263.26752427 Ry
     estimated scf accuracy    <       0.00052403 Ry

     total magnetization       =     0.00 Bohr mag/cell
     absolute magnetization    =     1.40 Bohr mag/cell

     iteration #  8     ecut=    70.00 Ry     beta= 0.30
     Davidson diagonalization with overlap
     ethr =  1.64E-06,  avg # of iterations =  2.2

     total cpu time spent up to now is        3.1 secs

     total energy              =    -263.26843085 Ry
     estimated scf accuracy    <       0.00001507 Ry

     total magnetization       =     0.00 Bohr mag/cell
     absolute magnetization    =     1.24 Bohr mag/cell

     iteration #  9     ecut=    70.00 Ry     beta= 0.30
     Davidson diagonalization with overlap
     ethr =  4.71E-08,  avg # of iterations =  3.6

     total cpu time spent up to now is        3.4 secs

     total energy              =    -263.26844182 Ry
     estimated scf accuracy    <       0.00000505 Ry

     total magnetization       =     0.00 Bohr mag/cell
     absolute magnetization    =     1.23 Bohr mag/cell

     iteration # 10     ecut=    70.00 Ry     beta= 0.30
     Davidson diagonalization with overlap
     ethr =  1.58E-08,  avg # of iterations =  2.8

     total cpu time spent up to now is        3.7 secs

     total energy              =    -263.26844655 Ry
     estimated scf accuracy    <       0.00000011 Ry

     total magnetization       =     0.00 Bohr mag/cell
     absolute magnetization    =     1.22 Bohr mag/cell

     iteration # 11     ecut=    70.00 Ry     beta= 0.30
     Davidson diagonalization with overlap
     ethr =  3.45E-10,  avg # of iterations =  4.6

     total cpu time spent up to now is        4.2 secs

     total energy              =    -263.26844683 Ry
     estimated scf accuracy    <       0.00000006 Ry

     total magnetization       =     0.00 Bohr mag/cell
     absolute magnetization    =     1.22 Bohr mag/cell

     iteration # 12     ecut=    70.00 Ry     beta= 0.30
     Davidson diagonalization with overlap
     ethr =  1.78E-10,  avg # of iterations =  1.0

     total cpu time spent up to now is        4.4 secs

     total energy              =    -263.26844683 Ry
     estimated scf accuracy    <       0.00000003 Ry

     total magnetization       =     0.00 Bohr mag/cell
     absolute magnetization    =     1.22 Bohr mag/cell

     iteration # 13     ecut=    70.00 Ry     beta= 0.30
     Davidson diagonalization with overlap
     ethr =  8.54E-11,  avg # of iterations =  1.6

     Magnetic moment per site  (integrated on atomic sphere of radius R)
     atom   1 (R=0.179)  charge=  7.5422  magn=  0.5568
     atom   2 (R=0.179)  charge=  7.5422  magn= -0.5568
     atom   3 (R=0.179)  charge=  5.4359  magn= -0.0000
     atom   4 (R=0.179)  charge=  5.4359  magn= -0.0000

     total cpu time spent up to now is        4.7 secs

     End of self-consistent calculation

     =================== HUBBARD OCCUPATIONS ===================
     ------------------------ ATOM    1 ------------------------
     Tr[ns(  1)] (up, down, total) =   4.60801  4.04433  8.65234
     Atomic magnetic moment for atom   1 =   0.56368
     SPIN  1
     eigenvalues:
       0.888  0.888  0.888  0.972  0.972
     eigenvectors (columns):
      -0.000 -0.000 -0.000 -0.748  0.663
      -0.282 -0.911 -0.302 -0.000 -0.000
      -0.582 -0.088  0.809 -0.000 -0.000
       0.000  0.000  0.000 -0.663 -0.748
       0.763 -0.404  0.505  0.000  0.000
     occupation matrix ns (before diag.):
       0.972 -0.000 -0.000 -0.000  0.000
      -0.000  0.888 -0.000  0.000  0.000
      -0.000 -0.000  0.888  0.000  0.000
      -0.000  0.000  0.000  0.972 -0.000
       0.000  0.000  0.000 -0.000  0.888
     SPIN  2
     eigenvalues:
       0.709  0.709  0.709  0.959  0.959
     eigenvectors (columns):
      -0.000  0.000 -0.000  0.215 -0.977
      -0.263 -0.497 -0.827  0.000  0.000
      -0.618 -0.572  0.540  0.000  0.000
       0.000 -0.000  0.000  0.977  0.215
       0.741 -0.653  0.157 -0.000 -0.000
     occupation matrix ns (before diag.):
       0.959 -0.000 -0.000 -0.000  0.000
      -0.000  0.709 -0.000  0.000  0.000
      -0.000 -0.000  0.709  0.000  0.000
      -0.000  0.000  0.000  0.959 -0.000
       0.000  0.000  0.000 -0.000  0.709
     ------------------------ ATOM    2 ------------------------
     Tr[ns(  2)] (up, down, total) =   4.04434  4.60801  8.65235
     Atomic magnetic moment for atom   2 =  -0.56368
     SPIN  1
     eigenvalues:
       0.709  0.709  0.709  0.959  0.959
     eigenvectors (columns):
      -0.000  0.000 -0.000 -0.579  0.815
      -0.249 -0.517 -0.819 -0.000 -0.000
      -0.581 -0.596  0.554 -0.000 -0.000
       0.000 -0.000  0.000 -0.815 -0.579
       0.775 -0.614  0.152  0.000  0.000
     occupation matrix ns (before diag.):
       0.959 -0.000 -0.000 -0.000  0.000
      -0.000  0.709 -0.000  0.000  0.000
      -0.000 -0.000  0.709  0.000  0.000
      -0.000  0.000  0.000  0.959 -0.000
       0.000  0.000  0.000 -0.000  0.709
     SPIN  2
     eigenvalues:
       0.888  0.888  0.888  0.972  0.972
     eigenvectors (columns):
      -0.000  0.000 -0.000 -0.280  0.960
      -0.270 -0.719 -0.641 -0.000 -0.000
      -0.614 -0.384  0.690 -0.000 -0.000
       0.000  0.000  0.000 -0.960 -0.280
       0.742 -0.579  0.337  0.000  0.000
     occupation matrix ns (before diag.):
       0.972 -0.000 -0.000 -0.000  0.000
      -0.000  0.888 -0.000  0.000  0.000
      -0.000 -0.000  0.888  0.000  0.000
      -0.000  0.000  0.000  0.972 -0.000
       0.000  0.000  0.000 -0.000  0.888

     Number of occupied Hubbard levels =   17.3047

 ------ SPIN UP ------------


          k = 0.0000 0.0000 0.0000 (  1243 PWs)   bands (ev):

     0.0535   9.3661  13.6867  13.6867  13.6867  19.6209  19.6209  23.7329
    23.7329  23.7329  26.9019  26.9019  26.9019  28.0659  28.0659  31.6942
    31.6942  31.6942  38.7306  38.7306  38.7306  38.9478  50.2262  50.2262
    60.3541  63.6447  63.6447  63.6447  64.5893  64.5893  64.5893  73.2514

          k =-0.2500 0.2500-0.2500 (  1197 PWs)   bands (ev):

     1.2289   6.6731  14.7420  14.7420  17.7099  18.9808  18.9808  20.8308
    23.5547  23.5547  26.2073  26.2073  27.2480  27.6854  27.6854  28.8000
    30.7622  30.7622  40.8545  41.0571  42.6966  42.6966  50.5966  50.5966
    58.8533  60.7495  60.7495  61.7697  62.0333  62.0333  66.2460  70.0559

          k = 0.5000-0.5000 0.5000 (  1194 PWs)   bands (ev):

     3.7879   3.8498  16.9990  16.9990  17.3395  17.3395  19.5630  19.6940
    23.4997  23.4997  24.1714  24.1714  26.4383  27.7408  28.9064  28.9064
    29.8739  29.8739  42.1812  42.2759  49.3175  49.3175  49.3456  49.3456
    57.2859  57.2859  57.3457  57.3457  57.9066  57.9089  75.2908  75.2947

          k = 0.0000 0.5000 0.0000 (  1198 PWs)   bands (ev):

     1.6166   6.3085  14.9419  14.9419  16.3320  19.0918  20.2274  21.6770
    21.6770  24.1062  25.1053  27.0339  27.7118  27.7118  28.0041  29.4685
    29.4685  30.7543  40.2332  41.0994  44.1006  44.1006  48.8978  50.3597
    58.9313  58.9313  59.2342  63.9392  63.9392  65.0595  65.8606  65.9329

          k = 0.7500-0.2500 0.7500 (  1194 PWs)   bands (ev):

     3.5431   4.6886  14.2604  15.7879  16.4781  19.1473  21.0993  21.6826
    21.9631  22.7052  25.5164  25.8469  26.3486  27.3183  27.7691  28.9211
    30.0004  30.6577  41.7400  43.1251  47.4992  47.7445  48.7776  50.1753
    53.0389  55.3400  57.5904  61.1488  62.6539  65.4641  67.7047  70.8475

          k = 0.5000 0.0000 0.5000 (  1195 PWs)   bands (ev):

     2.7908   5.2119  14.5865  16.4934  16.7512  17.7519  21.2971  21.8801
    22.0211  23.4752  25.1709  25.9110  26.0688  26.2254  28.0830  28.8627
    29.8108  31.3249  42.4617  42.6083  45.4283  46.5081  49.5562  51.0584
    53.6345  56.2972  59.7061  61.0999  62.0152  65.1065  66.3618  68.1509

          k = 0.0000-1.0000 0.0000 (  1162 PWs)   bands (ev):

     4.0095   4.7423  12.1473  16.6336  16.6336  20.3703  20.3703  20.8939
    21.2599  24.9880  24.9880  25.6157  26.5887  27.7468  27.9431  27.9569
    31.0637  31.0637  40.8636  43.1872  47.1180  47.3336  49.3776  49.3776
    54.5870  55.0449  55.0449  63.1469  64.3604  64.3604  68.0910  68.0910

          k =-0.5000-1.0000 0.0000 (  1176 PWs)   bands (ev):

     4.3576   4.3576  13.9639  13.9883  18.4246  18.4246  21.3899  21.7199
    21.8041  22.1046  25.9294  25.9294  27.5022  27.5424  28.8919  28.9050
    28.9050  29.6668  43.1070  43.1434  46.0858  46.0858  52.1304  52.1304
    52.2294  52.2575  58.7714  58.7714  66.9669  67.1162  67.2041  67.2130

 ------ SPIN DOWN ----------


          k = 0.0000 0.0000 0.0000 (  1243 PWs)   bands (ev):

     0.0535   9.3661  13.6867  13.6867  13.6867  19.6209  19.6209  23.7329
    23.7329  23.7329  26.9019  26.9019  26.9019  28.0659  28.0659  31.6942
    31.6942  31.6942  38.7306  38.7306  38.7306  38.9478  50.2262  50.2262
    60.3541  63.6447  63.6447  63.6447  64.5893  64.5893  64.5893  73.2514

          k =-0.2500 0.2500-0.2500 (  1197 PWs)   bands (ev):

     1.2289   6.6731  14.7420  14.7420  17.7099  18.9808  18.9808  20.8308
    23.5547  23.5547  26.2073  26.2073  27.2480  27.6854  27.6854  28.8000
    30.7622  30.7622  40.8545  41.0571  42.6966  42.6966  50.5966  50.5966
    58.8533  60.7495  60.7495  61.7697  62.0333  62.0333  66.2460  70.0559

          k = 0.5000-0.5000 0.5000 (  1194 PWs)   bands (ev):

     3.7879   3.8498  16.9990  16.9990  17.3395  17.3395  19.5630  19.6940
    23.4997  23.4997  24.1714  24.1714  26.4382  27.7408  28.9064  28.9064
    29.8740  29.8740  42.1812  42.2759  49.3175  49.3175  49.3456  49.3456
    57.2859  57.2859  57.3457  57.3457  57.9066  57.9089  75.2908  75.2947

          k = 0.0000 0.5000 0.0000 (  1198 PWs)   bands (ev):

     1.6166   6.3085  14.9419  14.9419  16.3320  19.0918  20.2274  21.6770
    21.6770  24.1062  25.1053  27.0339  27.7118  27.7118  28.0041  29.4685
    29.4685  30.7543  40.2332  41.0994  44.1006  44.1006  48.8978  50.3597
    58.9313  58.9313  59.2342  63.9392  63.9392  65.0595  65.8606  65.9329

          k = 0.7500-0.2500 0.7500 (  1194 PWs)   bands (ev):

     3.5431   4.6886  14.2604  15.7879  16.4781  19.1473  21.0993  21.6826
    21.9631  22.7052  25.5164  25.8469  26.3486  27.3183  27.7691  28.9211
    30.0004  30.6577  41.7400  43.1251  47.4992  47.7445  48.7776  50.1752
    53.0389  55.3400  57.5904  61.1488  62.6539  65.4641  67.7047  70.8465

          k = 0.5000 0.0000 0.5000 (  1195 PWs)   bands (ev):

     2.7908   5.2119  14.5865  16.4934  16.7512  17.7519  21.2971  21.8801
    22.0211  23.4752  25.1709  25.9110  26.0688  26.2254  28.0830  28.8627
    29.8108  31.3249  42.4617  42.6083  45.4283  46.5081  49.5562  51.0584
    53.6345  56.2972  59.7061  61.0999  62.0152  65.1065  66.3618  68.1511

          k = 0.0000-1.0000 0.0000 (  1162 PWs)   bands (ev):

     4.0095   4.7423  12.1473  16.6336  16.6336  20.3703  20.3703  20.8939
    21.2599  24.9880  24.9880  25.6157  26.5887  27.7468  27.9431  27.9569
    31.0637  31.0637  40.8636  43.1872  47.1180  47.3336  49.3776  49.3776
    54.5870  55.0449  55.0449  63.1469  64.3604  64.3604  68.0910  68.0910

          k =-0.5000-1.0000 0.0000 (  1176 PWs)   bands (ev):

     4.3576   4.3576  13.9639  13.9883  18.4246  18.4246  21.3899  21.7199
    21.8041  22.1046  25.9294  25.9294  27.5022  27.5424  28.8919  28.9050
    28.9050  29.6668  43.1070  43.1434  46.0858  46.0858  52.1304  52.1304
    52.2294  52.2575  58.7714  58.7714  66.9667  67.1160  67.2040  67.2127

     highest occupied, lowest unoccupied level (ev):    31.6942   28.9050

!    total energy              =    -263.26844683 Ry
     estimated scf accuracy    <          1.9E-10 Ry

     The total energy is the sum of the following terms:
     one-electron contribution =      49.42046097 Ry
     hartree contribution      =      33.28317340 Ry
     xc contribution           =    -100.26120958 Ry
     ewald contribution        =    -246.06598117 Ry
     Hubbard energy            =       0.35510954 Ry

     total magnetization       =    -0.00 Bohr mag/cell
     absolute magnetization    =     1.22 Bohr mag/cell

     convergence has been achieved in  13 iterations

     Writing all to output data dir /Users/kirill/Documents/dft/volume/NiO_calibr/ecutwfc/out/NiO.save/ :
     XML data file, charge density, pseudopotentials, collected wavefunctions

     init_run     :      0.31s CPU      0.31s WALL (       1 calls)
     electrons    :      4.21s CPU      4.27s WALL (       1 calls)

     Called by init_run:
     wfcinit      :      0.08s CPU      0.08s WALL (       1 calls)
     potinit      :      0.03s CPU      0.03s WALL (       1 calls)
     hinit0       :      0.16s CPU      0.16s WALL (       1 calls)

     Called by electrons:
     c_bands      :      2.78s CPU      2.82s WALL (      13 calls)
     sum_band     :      0.92s CPU      0.93s WALL (      13 calls)
     v_of_rho     :      0.22s CPU      0.22s WALL (      14 calls)
     newd         :      0.29s CPU      0.30s WALL (      14 calls)
     mix_rho      :      0.02s CPU      0.02s WALL (      13 calls)

     Called by c_bands:
     init_us_2    :      0.02s CPU      0.02s WALL (     448 calls)
     cegterg      :      2.72s CPU      2.76s WALL (     208 calls)

     Called by *egterg:
     cdiaghg      :      0.55s CPU      0.55s WALL (     816 calls)
     h_psi        :      1.96s CPU      1.99s WALL (     832 calls)
     s_psi        :      0.04s CPU      0.04s WALL (     848 calls)
     g_psi        :      0.00s CPU      0.00s WALL (     608 calls)

     Called by h_psi:
     h_psi:calbec :      0.06s CPU      0.07s WALL (     832 calls)
     vloc_psi     :      1.78s CPU      1.81s WALL (     832 calls)
                                        0.00s GPU  (     832 calls)
     add_vuspsi   :      0.04s CPU      0.04s WALL (     832 calls)
     vhpsi        :      0.07s CPU      0.07s WALL (     832 calls)

     General routines
     calbec       :      0.14s CPU      0.14s WALL (    2096 calls)
     fft          :      0.15s CPU      0.15s WALL (     344 calls)
     ffts         :      0.01s CPU      0.01s WALL (      54 calls)
     fftw         :      2.05s CPU      2.08s WALL (   38868 calls)
     interpolate  :      0.01s CPU      0.01s WALL (      28 calls)

     Parallel routines

     Hubbard U routines
     new_ns       :      0.01s CPU      0.01s WALL (      13 calls)
     vhpsi        :      0.07s CPU      0.07s WALL (     832 calls)

     PWSCF        :      4.65s CPU      4.72s WALL


   This run was terminated on:  15:34:54  25Feb2026            

=------------------------------------------------------------------------------=
   JOB DONE.
=------------------------------------------------------------------------------=
