
     Program PWSCF v.7.5 starts on 25Feb2026 at 20:35:58 

     This program is part of the open-source Quantum ESPRESSO suite
     for quantum simulation of materials; please cite
         "P. Giannozzi et al., J. Phys.:Condens. Matter 21 395502 (2009);
         "P. Giannozzi et al., J. Phys.:Condens. Matter 29 465901 (2017);
         "P. Giannozzi et al., J. Chem. Phys. 152 154105 (2020);
          URL http://www.quantum-espresso.org", 
     in publications or presentations arising from this work. More details at
     http://www.quantum-espresso.org/quote

     Parallel version (MPI), running on     5 processors

     MPI processes distributed on     1 nodes
     0 MiB available memory on the printing compute node when the environment starts

     Reading input from NiO.scf_dft_U.in

     Current dimensions of program PWSCF are:
     Max number of different atomic species (ntypx) = 10
     Max number of k-points (npk) =  40000
     Max angular momentum in pseudopotentials (lmaxx) =  4
     file Ni.pbesol-n-rrkjus_psl.0.1.UPF: wavefunction(s)  3D renormalized
     file Ni.pbesol-n-rrkjus_psl.0.1.UPF: wavefunction(s)  3D renormalized

     R & G space division:  proc/nbgrp/npool/nimage =       5
     Subspace diagonalization in iterative solution of the eigenvalue problem:
     a serial algorithm will be used


     Parallelization info
     --------------------
     sticks:   dense  smooth     PW     G-vecs:    dense   smooth      PW
     Min         231      92     30                 5243     1322     241
     Max         232      93     31                 5247     1324     244
     Sum        1159     463    151                26229     6615    1211

     Using Slab Decomposition



     bravais-lattice index     =            2
     lattice parameter (alat)  =       7.8370  a.u.
     unit-cell volume          =     120.3343 (a.u.)^3
     number of atoms/cell      =            4
     number of atomic types    =            3
     number of electrons       =        32.00 (up:  16.00, down:  16.00)
     number of Kohn-Sham states=           32
     kinetic-energy cutoff     =      55.0000  Ry
     charge density cutoff     =     550.0000  Ry
     scf convergence threshold =      1.0E-09
     mixing beta               =       0.3000
     number of iterations used =            8  plain     mixing
     Exchange-correlation= PBESOL
                           (   1   4  10   8   0   0   0)
     Hubbard projectors: ortho-atomic
     Hubbard parameters of DFT+U (Dudarev formulation) in eV:
     U(Ni1-3d) =  4.6000
     U(Ni2-3d) =  4.6000

     Internal variables: lda_plus_u =T, lda_plus_u_kind = 0

     Internal variables: orbital_resolved =F, hub_pot_fix =F, apply_U = F

     celldm(1)=   7.837000  celldm(2)=   0.000000  celldm(3)=   0.000000
     celldm(4)=   0.000000  celldm(5)=   0.000000  celldm(6)=   0.000000

     crystal axes: (cart. coord. in units of alat)
               a(1) = (  -0.500000   0.000000   0.500000 )  
               a(2) = (   0.000000   0.500000   0.500000 )  
               a(3) = (  -0.500000   0.500000   0.000000 )  

     reciprocal axes: (cart. coord. in units 2 pi/alat)
               b(1) = ( -1.000000 -1.000000  1.000000 )  
               b(2) = (  1.000000  1.000000  1.000000 )  
               b(3) = ( -1.000000  1.000000 -1.000000 )  


     PseudoPot. # 1 for Ni read from file:
     /Users/kirill/Documents/dft/volume/NiO_dos_dft_U/../../pot/Ni.pbesol-n-rrkjus_psl.0.1.UPF
     MD5 check sum: 8a65ecc087b22b902f7e15bb4f925df7
     Pseudo is Ultrasoft + core correction, Zval = 10.0
     Generated using "atomic" code by A. Dal Corso  v.5.0.2 svn rev. 9415
     Using radial grid of 1195 points,  6 beta functions with: 
                l(1) =   0
                l(2) =   0
                l(3) =   1
                l(4) =   1
                l(5) =   2
                l(6) =   2
     Q(r) pseudized with 0 coefficients 


     PseudoPot. # 2 for Ni read from file:
     /Users/kirill/Documents/dft/volume/NiO_dos_dft_U/../../pot/Ni.pbesol-n-rrkjus_psl.0.1.UPF
     MD5 check sum: 8a65ecc087b22b902f7e15bb4f925df7
     Pseudo is Ultrasoft + core correction, Zval = 10.0
     Generated using "atomic" code by A. Dal Corso  v.5.0.2 svn rev. 9415
     Using radial grid of 1195 points,  6 beta functions with: 
                l(1) =   0
                l(2) =   0
                l(3) =   1
                l(4) =   1
                l(5) =   2
                l(6) =   2
     Q(r) pseudized with 0 coefficients 


     PseudoPot. # 3 for O  read from file:
     /Users/kirill/Documents/dft/volume/NiO_dos_dft_U/../../pot/O.pbesol-n-rrkjus_psl.1.0.0.UPF
     MD5 check sum: 69b2cf9905362d8720b1d83b4ba3171b
     Pseudo is Ultrasoft + core correction, Zval =  6.0
     Generated using &quot;atomic&quot; code by A. Dal Corso  v.6.3MaX
     Using radial grid of 1095 points,  4 beta functions with: 
                l(1) =   0
                l(2) =   0
                l(3) =   1
                l(4) =   1
     Q(r) pseudized with 0 coefficients 


     atomic species   valence    mass     pseudopotential
     Ni1              10.00    58.69340     Ni( 1.00)
     Ni2              10.00    58.69340     Ni( 1.00)
     O                 6.00    15.99900     O ( 1.00)

     Starting magnetic structure 
     atomic species   magnetization
     Ni1             0.500
     Ni2            -0.500
     O               0.000

     48 Sym. Ops., with inversion, found



   Cartesian axes

     site n.     atom                  positions (alat units)
         1        Ni1    tau(   1) = (   0.0000000   0.0000000   0.0000000  )
         2        Ni2    tau(   2) = (   0.5000000   0.5000000   0.5000000  )
         3        O      tau(   3) = (   0.2500000   0.2500000   0.2500000  )
         4        O      tau(   4) = (   0.7500000   0.7500000   0.7500000  )

     number of k points=     8
                       cart. coord. in units 2pi/alat
        k(    1) = (   0.0000000   0.0000000   0.0000000), wk =   0.0156250
        k(    2) = (  -0.2500000   0.2500000  -0.2500000), wk =   0.1250000
        k(    3) = (   0.5000000  -0.5000000   0.5000000), wk =   0.0625000
        k(    4) = (   0.0000000   0.5000000   0.0000000), wk =   0.0937500
        k(    5) = (   0.7500000  -0.2500000   0.7500000), wk =   0.3750000
        k(    6) = (   0.5000000   0.0000000   0.5000000), wk =   0.1875000
        k(    7) = (   0.0000000  -1.0000000   0.0000000), wk =   0.0468750
        k(    8) = (  -0.5000000  -1.0000000   0.0000000), wk =   0.0937500

     Dense  grid:    26229 G-vectors     FFT dimensions: (  45,  45,  45)

     Smooth grid:     6615 G-vectors     FFT dimensions: (  27,  27,  27)

     Estimated max dynamical RAM per process >      28.73 MB

     Estimated total dynamical RAM >     143.63 MB
     Generating pointlists ...
     new r_m :   0.1786 (alat units)  1.3998 (a.u.) for type    1
     new r_m :   0.1786 (alat units)  1.3998 (a.u.) for type    2
     new r_m :   0.1786 (alat units)  1.3998 (a.u.) for type    3

     Initial potential from superposition of free atoms

     starting charge      31.9995, renormalised to      32.0000

     STARTING HUBBARD OCCUPATIONS:

     =================== HUBBARD OCCUPATIONS ===================
     ------------------------ ATOM    1 ------------------------
     Tr[ns(  1)] (up, down, total) =   5.00000  3.00000  8.00000
     Atomic magnetic moment for atom   1 =   2.00000
     SPIN  1
     eigenvalues:
       1.000  1.000  1.000  1.000  1.000
     eigenvectors (columns):
       1.000  0.000  0.000  0.000  0.000
       0.000  1.000  0.000  0.000  0.000
       0.000  0.000  1.000  0.000  0.000
       0.000  0.000  0.000  1.000  0.000
       0.000  0.000  0.000  0.000  1.000
     occupation matrix ns (before diag.):
       1.000  0.000  0.000  0.000  0.000
       0.000  1.000  0.000  0.000  0.000
       0.000  0.000  1.000  0.000  0.000
       0.000  0.000  0.000  1.000  0.000
       0.000  0.000  0.000  0.000  1.000
     SPIN  2
     eigenvalues:
       0.600  0.600  0.600  0.600  0.600
     eigenvectors (columns):
       1.000  0.000  0.000  0.000  0.000
       0.000  1.000  0.000  0.000  0.000
       0.000  0.000  1.000  0.000  0.000
       0.000  0.000  0.000  1.000  0.000
       0.000  0.000  0.000  0.000  1.000
     occupation matrix ns (before diag.):
       0.600  0.000  0.000  0.000  0.000
       0.000  0.600  0.000  0.000  0.000
       0.000  0.000  0.600  0.000  0.000
       0.000  0.000  0.000  0.600  0.000
       0.000  0.000  0.000  0.000  0.600
     ------------------------ ATOM    2 ------------------------
     Tr[ns(  2)] (up, down, total) =   3.00000  5.00000  8.00000
     Atomic magnetic moment for atom   2 =  -2.00000
     SPIN  1
     eigenvalues:
       0.600  0.600  0.600  0.600  0.600
     eigenvectors (columns):
       1.000  0.000  0.000  0.000  0.000
       0.000  1.000  0.000  0.000  0.000
       0.000  0.000  1.000  0.000  0.000
       0.000  0.000  0.000  1.000  0.000
       0.000  0.000  0.000  0.000  1.000
     occupation matrix ns (before diag.):
       0.600  0.000  0.000  0.000  0.000
       0.000  0.600  0.000  0.000  0.000
       0.000  0.000  0.600  0.000  0.000
       0.000  0.000  0.000  0.600  0.000
       0.000  0.000  0.000  0.000  0.600
     SPIN  2
     eigenvalues:
       1.000  1.000  1.000  1.000  1.000
     eigenvectors (columns):
       1.000  0.000  0.000  0.000  0.000
       0.000  1.000  0.000  0.000  0.000
       0.000  0.000  1.000  0.000  0.000
       0.000  0.000  0.000  1.000  0.000
       0.000  0.000  0.000  0.000  1.000
     occupation matrix ns (before diag.):
       1.000  0.000  0.000  0.000  0.000
       0.000  1.000  0.000  0.000  0.000
       0.000  0.000  1.000  0.000  0.000
       0.000  0.000  0.000  1.000  0.000
       0.000  0.000  0.000  0.000  1.000

     Number of occupied Hubbard levels =   16.0000

     Atomic wfc used for Hubbard projectors are orthogonalized

     Starting wfcs are   26 randomized atomic wfcs +    6 random wfcs

     total cpu time spent up to now is        0.4 secs

     Self-consistent Calculation

     iteration #  1     ecut=    55.00 Ry     beta= 0.30
     Davidson diagonalization with overlap
     ethr =  1.00E-02,  avg # of iterations =  8.5

     =================== HUBBARD OCCUPATIONS ===================
     ------------------------ ATOM    1 ------------------------
     Tr[ns(  1)] (up, down, total) =   4.89131  3.54465  8.43596
     Atomic magnetic moment for atom   1 =   1.34665
     SPIN  1
     eigenvalues:
       0.973  0.973  0.973  0.986  0.986
     eigenvectors (columns):
      -0.000 -0.000  0.000 -0.235  0.972
      -0.279 -0.932  0.232 -0.000 -0.000
      -0.576 -0.031 -0.817 -0.000 -0.000
       0.000  0.000 -0.000 -0.972 -0.235
       0.768 -0.362 -0.528  0.000  0.000
     occupation matrix ns (before diag.):
       0.986 -0.000 -0.000 -0.000  0.000
      -0.000  0.973 -0.000  0.000  0.000
      -0.000 -0.000  0.973  0.000  0.000
      -0.000  0.000  0.000  0.986 -0.000
       0.000  0.000  0.000 -0.000  0.973
     SPIN  2
     eigenvalues:
       0.560  0.560  0.560  0.932  0.932
     eigenvectors (columns):
      -0.000 -0.000  0.000 -0.398  0.918
      -0.288 -0.956  0.063 -0.000 -0.000
      -0.610  0.133 -0.781 -0.000 -0.000
       0.000  0.000 -0.000 -0.918 -0.398
       0.738 -0.263 -0.621  0.000  0.000
     occupation matrix ns (before diag.):
       0.932 -0.000 -0.000 -0.000  0.000
      -0.000  0.560 -0.000  0.000  0.000
      -0.000 -0.000  0.560  0.000  0.000
      -0.000  0.000  0.000  0.932 -0.000
       0.000  0.000  0.000 -0.000  0.560
     ------------------------ ATOM    2 ------------------------
     Tr[ns(  2)] (up, down, total) =   3.54464  4.89129  8.43593
     Atomic magnetic moment for atom   2 =  -1.34664
     SPIN  1
     eigenvalues:
       0.560  0.560  0.560  0.932  0.932
     eigenvectors (columns):
      -0.000  0.000 -0.000  0.113 -0.994
      -0.269 -0.695 -0.667  0.000  0.000
      -0.607 -0.415  0.678  0.000  0.000
       0.000 -0.000  0.000  0.994  0.113
       0.748 -0.586  0.310 -0.000 -0.000
     occupation matrix ns (before diag.):
       0.932 -0.000 -0.000 -0.000  0.000
      -0.000  0.560 -0.000  0.000  0.000
      -0.000 -0.000  0.560  0.000  0.000
      -0.000  0.000  0.000  0.932 -0.000
       0.000  0.000  0.000 -0.000  0.560
     SPIN  2
     eigenvalues:
       0.973  0.973  0.973  0.986  0.986
     eigenvectors (columns):
      -0.000 -0.000  0.000 -0.367  0.930
      -0.253 -0.925 -0.283 -0.000 -0.000
      -0.618  0.380 -0.688 -0.000 -0.000
       0.000  0.000 -0.000 -0.930 -0.367
       0.744  0.000 -0.668  0.000  0.000
     occupation matrix ns (before diag.):
       0.986 -0.000 -0.000 -0.000  0.000
      -0.000  0.973 -0.000  0.000  0.000
      -0.000 -0.000  0.973  0.000  0.000
      -0.000  0.000  0.000  0.986 -0.000
       0.000  0.000  0.000 -0.000  0.973

     Number of occupied Hubbard levels =   16.8719

     total cpu time spent up to now is        0.8 secs

     total energy              =    -263.05955075 Ry
     estimated scf accuracy    <       0.75104719 Ry

     total magnetization       =     0.00 Bohr mag/cell
     absolute magnetization    =     2.97 Bohr mag/cell

     iteration #  2     ecut=    55.00 Ry     beta= 0.30
     Davidson diagonalization with overlap
     ethr =  2.35E-03,  avg # of iterations =  1.6

     total cpu time spent up to now is        1.0 secs

     total energy              =    -263.17330777 Ry
     estimated scf accuracy    <       0.33498715 Ry

     total magnetization       =     0.00 Bohr mag/cell
     absolute magnetization    =     2.52 Bohr mag/cell

     iteration #  3     ecut=    55.00 Ry     beta= 0.30
     Davidson diagonalization with overlap
     ethr =  1.05E-03,  avg # of iterations =  1.6

     total cpu time spent up to now is        1.2 secs

     total energy              =    -263.23673612 Ry
     estimated scf accuracy    <       0.11411876 Ry

     total magnetization       =    -0.00 Bohr mag/cell
     absolute magnetization    =     2.32 Bohr mag/cell

     iteration #  4     ecut=    55.00 Ry     beta= 0.30
     Davidson diagonalization with overlap
     ethr =  3.57E-04,  avg # of iterations =  2.6

     total cpu time spent up to now is        1.5 secs

     total energy              =    -263.25471488 Ry
     estimated scf accuracy    <       0.03270004 Ry

     total magnetization       =    -0.00 Bohr mag/cell
     absolute magnetization    =     1.97 Bohr mag/cell

     iteration #  5     ecut=    55.00 Ry     beta= 0.30
     Davidson diagonalization with overlap
     ethr =  1.02E-04,  avg # of iterations =  2.9

     total cpu time spent up to now is        1.7 secs

     total energy              =    -263.26346491 Ry
     estimated scf accuracy    <       0.00262268 Ry

     total magnetization       =     0.00 Bohr mag/cell
     absolute magnetization    =     1.60 Bohr mag/cell

     iteration #  6     ecut=    55.00 Ry     beta= 0.30
     Davidson diagonalization with overlap
     ethr =  8.20E-06,  avg # of iterations =  4.9

     total cpu time spent up to now is        2.0 secs

     total energy              =    -263.26509231 Ry
     estimated scf accuracy    <       0.00116662 Ry

     total magnetization       =     0.00 Bohr mag/cell
     absolute magnetization    =     1.45 Bohr mag/cell

     iteration #  7     ecut=    55.00 Ry     beta= 0.30
     Davidson diagonalization with overlap
     ethr =  3.65E-06,  avg # of iterations =  1.9

     total cpu time spent up to now is        2.2 secs

     total energy              =    -263.26524221 Ry
     estimated scf accuracy    <       0.00066491 Ry

     total magnetization       =    -0.00 Bohr mag/cell
     absolute magnetization    =     1.39 Bohr mag/cell

     iteration #  8     ecut=    55.00 Ry     beta= 0.30
     Davidson diagonalization with overlap
     ethr =  2.08E-06,  avg # of iterations =  1.9

     total cpu time spent up to now is        2.5 secs

     total energy              =    -263.26593238 Ry
     estimated scf accuracy    <       0.00001639 Ry

     total magnetization       =    -0.00 Bohr mag/cell
     absolute magnetization    =     1.25 Bohr mag/cell

     iteration #  9     ecut=    55.00 Ry     beta= 0.30
     Davidson diagonalization with overlap
     ethr =  5.12E-08,  avg # of iterations =  3.8

     total cpu time spent up to now is        2.8 secs

     total energy              =    -263.26594426 Ry
     estimated scf accuracy    <       0.00000551 Ry

     total magnetization       =    -0.00 Bohr mag/cell
     absolute magnetization    =     1.23 Bohr mag/cell

     iteration # 10     ecut=    55.00 Ry     beta= 0.30
     Davidson diagonalization with overlap
     ethr =  1.72E-08,  avg # of iterations =  3.0

     total cpu time spent up to now is        3.0 secs

     total energy              =    -263.26595016 Ry
     estimated scf accuracy    <       0.00000010 Ry

     total magnetization       =    -0.00 Bohr mag/cell
     absolute magnetization    =     1.22 Bohr mag/cell

     iteration # 11     ecut=    55.00 Ry     beta= 0.30
     Davidson diagonalization with overlap
     ethr =  3.12E-10,  avg # of iterations =  4.6

     total cpu time spent up to now is        3.3 secs

     total energy              =    -263.26595045 Ry
     estimated scf accuracy    <       0.00000005 Ry

     total magnetization       =    -0.00 Bohr mag/cell
     absolute magnetization    =     1.22 Bohr mag/cell

     iteration # 12     ecut=    55.00 Ry     beta= 0.30
     Davidson diagonalization with overlap
     ethr =  1.42E-10,  avg # of iterations =  1.1

     total cpu time spent up to now is        3.6 secs

     total energy              =    -263.26595044 Ry
     estimated scf accuracy    <       0.00000005 Ry

     total magnetization       =     0.00 Bohr mag/cell
     absolute magnetization    =     1.22 Bohr mag/cell

     iteration # 13     ecut=    55.00 Ry     beta= 0.30
     Davidson diagonalization with overlap
     ethr =  1.42E-10,  avg # of iterations =  2.0

     Magnetic moment per site  (integrated on atomic sphere of radius R)
     atom   1 (R=0.179)  charge=  7.5411  magn=  0.5568
     atom   2 (R=0.179)  charge=  7.5412  magn= -0.5568
     atom   3 (R=0.179)  charge=  5.4361  magn= -0.0000
     atom   4 (R=0.179)  charge=  5.4361  magn= -0.0000

     total cpu time spent up to now is        3.8 secs

     End of self-consistent calculation

     =================== HUBBARD OCCUPATIONS ===================
     ------------------------ ATOM    1 ------------------------
     Tr[ns(  1)] (up, down, total) =   4.60810  4.04456  8.65266
     Atomic magnetic moment for atom   1 =   0.56354
     SPIN  1
     eigenvalues:
       0.888  0.888  0.888  0.972  0.972
     eigenvectors (columns):
      -0.000  0.000 -0.000 -0.628  0.778
      -0.270 -0.301 -0.915 -0.000 -0.000
      -0.634 -0.660  0.404 -0.000 -0.000
       0.000 -0.000  0.000 -0.778 -0.628
       0.725 -0.688  0.012  0.000  0.000
     occupation matrix ns (before diag.):
       0.972 -0.000 -0.000 -0.000  0.000
      -0.000  0.888 -0.000  0.000  0.000
      -0.000 -0.000  0.888  0.000  0.000
      -0.000  0.000  0.000  0.972 -0.000
       0.000  0.000  0.000 -0.000  0.888
     SPIN  2
     eigenvalues:
       0.709  0.709  0.709  0.959  0.959
     eigenvectors (columns):
      -0.000 -0.000  0.000 -0.596  0.803
      -0.268 -0.963  0.039 -0.000 -0.000
      -0.587  0.131 -0.799 -0.000 -0.000
       0.000  0.000 -0.000 -0.803 -0.596
       0.764 -0.237 -0.600  0.000  0.000
     occupation matrix ns (before diag.):
       0.959 -0.000 -0.000 -0.000  0.000
      -0.000  0.709 -0.000  0.000  0.000
      -0.000 -0.000  0.709  0.000  0.000
      -0.000  0.000  0.000  0.959 -0.000
       0.000  0.000  0.000 -0.000  0.709
     ------------------------ ATOM    2 ------------------------
     Tr[ns(  2)] (up, down, total) =   4.04456  4.60810  8.65265
     Atomic magnetic moment for atom   2 =  -0.56354
     SPIN  1
     eigenvalues:
       0.709  0.709  0.709  0.959  0.959
     eigenvectors (columns):
      -0.000  0.000 -0.000  0.093 -0.996
      -0.254 -0.606 -0.754  0.000  0.000
      -0.577 -0.531  0.621  0.000  0.000
       0.000  0.000  0.000  0.996  0.093
       0.776 -0.593  0.215 -0.000 -0.000
     occupation matrix ns (before diag.):
       0.959 -0.000 -0.000 -0.000  0.000
      -0.000  0.709 -0.000  0.000  0.000
      -0.000 -0.000  0.709  0.000  0.000
      -0.000  0.000  0.000  0.959 -0.000
       0.000  0.000  0.000 -0.000  0.709
     SPIN  2
     eigenvalues:
       0.888  0.888  0.888  0.972  0.972
     eigenvectors (columns):
      -0.000 -0.000  0.000 -0.330  0.944
      -0.295 -0.932  0.209 -0.000 -0.000
      -0.597  0.009 -0.802 -0.000 -0.000
       0.000  0.000 -0.000 -0.944 -0.330
       0.746 -0.361 -0.559  0.000  0.000
     occupation matrix ns (before diag.):
       0.972 -0.000 -0.000 -0.000  0.000
      -0.000  0.888 -0.000  0.000  0.000
      -0.000 -0.000  0.888  0.000  0.000
      -0.000  0.000  0.000  0.972 -0.000
       0.000  0.000  0.000 -0.000  0.888

     Number of occupied Hubbard levels =   17.3053

 ------ SPIN UP ------------


          k = 0.0000 0.0000 0.0000 (   869 PWs)   bands (ev):

     0.0524   9.3636  13.6879  13.6879  13.6879  19.6222  19.6222  23.7326
    23.7326  23.7326  26.9027  26.9027  26.9027  28.0669  28.0669  31.6945
    31.6945  31.6945  38.7310  38.7310  38.7310  38.9462  50.2285  50.2285
    60.3544  63.6466  63.6466  63.6466  64.5942  64.5942  64.5942  73.2520

          k =-0.2500 0.2500-0.2500 (   827 PWs)   bands (ev):

     1.2278   6.6718  14.7429  14.7429  17.7100  18.9815  18.9815  20.8308
    23.5551  23.5551  26.2084  26.2084  27.2482  27.6858  27.6858  28.8002
    30.7629  30.7629  40.8550  41.0557  42.6973  42.6973  50.5989  50.5989
    58.8542  60.7513  60.7513  61.7724  62.0379  62.0379  66.2491  70.0606

          k = 0.5000-0.5000 0.5000 (   832 PWs)   bands (ev):

     3.7868   3.8486  16.9998  16.9998  17.3403  17.3403  19.5630  19.6941
    23.5004  23.5004  24.1722  24.1722  26.4386  27.7410  28.9068  28.9068
    29.8742  29.8742  42.1806  42.2752  49.3188  49.3188  49.3469  49.3469
    57.2888  57.2888  57.3485  57.3485  57.9082  57.9105  75.2896  75.2980

          k = 0.0000 0.5000 0.0000 (   833 PWs)   bands (ev):

     1.6155   6.3071  14.9428  14.9428  16.3325  19.0917  20.2284  21.6772
    21.6772  24.1070  25.1058  27.0348  27.7126  27.7126  28.0052  29.4686
    29.4686  30.7546  40.2341  41.0981  44.1008  44.1008  48.9001  50.3618
    58.9328  58.9328  59.2380  63.9451  63.9451  65.0611  65.8612  65.9373

          k = 0.7500-0.2500 0.7500 (   822 PWs)   bands (ev):

     3.5418   4.6873  14.2613  15.7888  16.4790  19.1478  21.0995  21.6836
    21.9633  22.7058  25.5173  25.8477  26.3490  27.3190  27.7700  28.9212
    30.0005  30.6578  41.7407  43.1244  47.4997  47.7452  48.7783  50.1772
    53.0405  55.3426  57.5923  61.1522  62.6588  65.4683  67.7091  70.8491

          k = 0.5000 0.0000 0.5000 (   837 PWs)   bands (ev):

     2.7896   5.2106  14.5875  16.4939  16.7519  17.7526  21.2967  21.8803
    22.0220  23.4761  25.1717  25.9119  26.0692  26.2257  28.0835  28.8631
    29.8108  31.3250  42.4611  42.6088  45.4282  46.5093  49.5580  51.0603
    53.6361  56.2996  59.7077  61.1026  62.0197  65.1078  66.3676  68.1556

          k = 0.0000-1.0000 0.0000 (   806 PWs)   bands (ev):

     4.0080   4.7410  12.1484  16.6347  16.6347  20.3705  20.3705  20.8948
    21.2606  24.9888  24.9888  25.6147  26.5892  27.7475  27.9446  27.9572
    31.0635  31.0635  40.8648  43.1865  47.1180  47.3353  49.3775  49.3775
    54.5897  55.0462  55.0462  63.1526  64.3677  64.3677  68.0938  68.0938

          k =-0.5000-1.0000 0.0000 (   848 PWs)   bands (ev):

     4.3561   4.3561  13.9647  13.9892  18.4249  18.4249  21.3901  21.7207
    21.8049  22.1047  25.9301  25.9301  27.5030  27.5432  28.8917  28.9049
    28.9049  29.6665  43.1075  43.1439  46.0856  46.0856  52.1321  52.1321
    52.2304  52.2585  58.7740  58.7740  66.9727  67.1217  67.2077  67.2164

 ------ SPIN DOWN ----------


          k = 0.0000 0.0000 0.0000 (   869 PWs)   bands (ev):

     0.0524   9.3636  13.6879  13.6879  13.6879  19.6222  19.6222  23.7326
    23.7326  23.7326  26.9027  26.9027  26.9027  28.0669  28.0669  31.6945
    31.6945  31.6945  38.7310  38.7310  38.7310  38.9462  50.2285  50.2285
    60.3544  63.6466  63.6466  63.6466  64.5942  64.5942  64.5942  73.2520

          k =-0.2500 0.2500-0.2500 (   827 PWs)   bands (ev):

     1.2278   6.6718  14.7429  14.7429  17.7100  18.9815  18.9815  20.8308
    23.5551  23.5551  26.2084  26.2084  27.2483  27.6858  27.6858  28.8002
    30.7629  30.7629  40.8550  41.0557  42.6973  42.6973  50.5989  50.5989
    58.8542  60.7513  60.7513  61.7724  62.0379  62.0379  66.2491  70.0606

          k = 0.5000-0.5000 0.5000 (   832 PWs)   bands (ev):

     3.7868   3.8486  16.9998  16.9998  17.3403  17.3403  19.5630  19.6941
    23.5004  23.5004  24.1722  24.1722  26.4386  27.7410  28.9068  28.9068
    29.8742  29.8742  42.1806  42.2752  49.3188  49.3188  49.3469  49.3469
    57.2888  57.2888  57.3485  57.3485  57.9082  57.9105  75.2639  75.2738

          k = 0.0000 0.5000 0.0000 (   833 PWs)   bands (ev):

     1.6155   6.3071  14.9428  14.9428  16.3325  19.0917  20.2284  21.6772
    21.6772  24.1071  25.1058  27.0348  27.7126  27.7126  28.0052  29.4686
    29.4686  30.7546  40.2341  41.0981  44.1008  44.1008  48.9001  50.3618
    58.9328  58.9328  59.2380  63.9451  63.9451  65.0610  65.8612  65.9373

          k = 0.7500-0.2500 0.7500 (   822 PWs)   bands (ev):

     3.5418   4.6873  14.2613  15.7888  16.4790  19.1478  21.0995  21.6836
    21.9633  22.7058  25.5173  25.8477  26.3490  27.3190  27.7700  28.9211
    30.0005  30.6578  41.7407  43.1244  47.4997  47.7452  48.7783  50.1772
    53.0405  55.3426  57.5923  61.1522  62.6588  65.4683  67.7091  70.8495

          k = 0.5000 0.0000 0.5000 (   837 PWs)   bands (ev):

     2.7896   5.2106  14.5875  16.4939  16.7519  17.7526  21.2967  21.8803
    22.0220  23.4761  25.1717  25.9118  26.0692  26.2257  28.0835  28.8630
    29.8108  31.3250  42.4611  42.6088  45.4282  46.5093  49.5580  51.0603
    53.6361  56.2996  59.7077  61.1026  62.0197  65.1078  66.3676  68.1557

          k = 0.0000-1.0000 0.0000 (   806 PWs)   bands (ev):

     4.0080   4.7410  12.1484  16.6347  16.6347  20.3705  20.3705  20.8948
    21.2606  24.9888  24.9888  25.6148  26.5892  27.7475  27.9446  27.9572
    31.0635  31.0635  40.8648  43.1865  47.1180  47.3353  49.3775  49.3775
    54.5897  55.0462  55.0462  63.1526  64.3677  64.3677  68.0938  68.0938

          k =-0.5000-1.0000 0.0000 (   848 PWs)   bands (ev):

     4.3561   4.3561  13.9647  13.9892  18.4249  18.4249  21.3901  21.7207
    21.8049  22.1047  25.9301  25.9301  27.5030  27.5432  28.8917  28.9049
    28.9049  29.6665  43.1075  43.1439  46.0856  46.0856  52.1321  52.1321
    52.2304  52.2585  58.7739  58.7739  66.9728  67.1217  67.2087  67.2163

     highest occupied, lowest unoccupied level (ev):    31.6945   28.9049

!    total energy              =    -263.26595046 Ry
     estimated scf accuracy    <          1.9E-10 Ry

     The total energy is the sum of the following terms:
     one-electron contribution =      49.42476203 Ry
     hartree contribution      =      33.28111137 Ry
     xc contribution           =    -100.26090506 Ry
     ewald contribution        =    -246.06598117 Ry
     Hubbard energy            =       0.35506238 Ry

     total magnetization       =    -0.00 Bohr mag/cell
     absolute magnetization    =     1.22 Bohr mag/cell

     convergence has been achieved in  13 iterations

     Writing all to output data dir /Users/kirill/Documents/dft/volume/NiO_dos_dft_U/out/NiO.save/ :
     XML data file, charge density, pseudopotentials, collected wavefunctions

     init_run     :      0.25s CPU      0.26s WALL (       1 calls)
     electrons    :      3.38s CPU      3.44s WALL (       1 calls)

     Called by init_run:
     wfcinit      :      0.06s CPU      0.06s WALL (       1 calls)
     potinit      :      0.03s CPU      0.03s WALL (       1 calls)
     hinit0       :      0.13s CPU      0.13s WALL (       1 calls)

     Called by electrons:
     c_bands      :      2.29s CPU      2.34s WALL (      13 calls)
     sum_band     :      0.69s CPU      0.70s WALL (      13 calls)
     v_of_rho     :      0.18s CPU      0.18s WALL (      14 calls)
     newd         :      0.21s CPU      0.21s WALL (      14 calls)
     mix_rho      :      0.02s CPU      0.02s WALL (      13 calls)

     Called by c_bands:
     init_us_2    :      0.02s CPU      0.02s WALL (     448 calls)
     cegterg      :      2.25s CPU      2.29s WALL (     208 calls)

     Called by *egterg:
     cdiaghg      :      0.56s CPU      0.56s WALL (     851 calls)
     h_psi        :      1.52s CPU      1.56s WALL (     867 calls)
     s_psi        :      0.03s CPU      0.03s WALL (     883 calls)
     g_psi        :      0.00s CPU      0.00s WALL (     643 calls)

     Called by h_psi:
     h_psi:calbec :      0.05s CPU      0.05s WALL (     867 calls)
     vloc_psi     :      1.38s CPU      1.41s WALL (     867 calls)
                                        0.00s GPU  (     867 calls)
     add_vuspsi   :      0.03s CPU      0.03s WALL (     867 calls)
     vhpsi        :      0.05s CPU      0.06s WALL (     867 calls)

     General routines
     calbec       :      0.11s CPU      0.11s WALL (    2166 calls)
     fft          :      0.13s CPU      0.13s WALL (     344 calls)
     ffts         :      0.00s CPU      0.00s WALL (      54 calls)
     fftw         :      1.59s CPU      1.63s WALL (   38826 calls)
     interpolate  :      0.01s CPU      0.01s WALL (      28 calls)

     Parallel routines

     Hubbard U routines
     new_ns       :      0.01s CPU      0.01s WALL (      13 calls)
     vhpsi        :      0.05s CPU      0.06s WALL (     867 calls)

     PWSCF        :      3.74s CPU      3.81s WALL


   This run was terminated on:  20:36: 2  25Feb2026            

=------------------------------------------------------------------------------=
   JOB DONE.
=------------------------------------------------------------------------------=
