
     Program PWSCF v.7.5 starts on 25Feb2026 at 13:35: 8 

     This program is part of the open-source Quantum ESPRESSO suite
     for quantum simulation of materials; please cite
         "P. Giannozzi et al., J. Phys.:Condens. Matter 21 395502 (2009);
         "P. Giannozzi et al., J. Phys.:Condens. Matter 29 465901 (2017);
         "P. Giannozzi et al., J. Chem. Phys. 152 154105 (2020);
          URL http://www.quantum-espresso.org", 
     in publications or presentations arising from this work. More details at
     http://www.quantum-espresso.org/quote

     Parallel version (MPI), running on     5 processors

     MPI processes distributed on     1 nodes
     0 MiB available memory on the printing compute node when the environment starts

     Reading input from NiO.scf_dft_U.in

     Current dimensions of program PWSCF are:
     Max number of different atomic species (ntypx) = 10
     Max number of k-points (npk) =  40000
     Max angular momentum in pseudopotentials (lmaxx) =  4
     file Ni.pbesol-n-rrkjus_psl.0.1.UPF: wavefunction(s)  3D renormalized
     file Ni.pbesol-n-rrkjus_psl.0.1.UPF: wavefunction(s)  3D renormalized

     R & G space division:  proc/nbgrp/npool/nimage =       5
     Subspace diagonalization in iterative solution of the eigenvalue problem:
     a serial algorithm will be used


     Parallelization info
     --------------------
     sticks:   dense  smooth     PW     G-vecs:    dense   smooth      PW
     Min         231      92     30                 5243     1322     241
     Max         232      93     31                 5247     1324     244
     Sum        1159     463    151                26229     6615    1211

     Using Slab Decomposition



     bravais-lattice index     =            2
     lattice parameter (alat)  =       7.8370  a.u.
     unit-cell volume          =     120.3343 (a.u.)^3
     number of atoms/cell      =            4
     number of atomic types    =            3
     number of electrons       =        32.00 (up:  16.00, down:  16.00)
     number of Kohn-Sham states=           32
     kinetic-energy cutoff     =      55.0000  Ry
     charge density cutoff     =     550.0000  Ry
     scf convergence threshold =      1.0E-09
     mixing beta               =       0.3000
     number of iterations used =            8  plain     mixing
     Exchange-correlation= PBESOL
                           (   1   4  10   8   0   0   0)

     celldm(1)=   7.837000  celldm(2)=   0.000000  celldm(3)=   0.000000
     celldm(4)=   0.000000  celldm(5)=   0.000000  celldm(6)=   0.000000

     crystal axes: (cart. coord. in units of alat)
               a(1) = (  -0.500000   0.000000   0.500000 )  
               a(2) = (   0.000000   0.500000   0.500000 )  
               a(3) = (  -0.500000   0.500000   0.000000 )  

     reciprocal axes: (cart. coord. in units 2 pi/alat)
               b(1) = ( -1.000000 -1.000000  1.000000 )  
               b(2) = (  1.000000  1.000000  1.000000 )  
               b(3) = ( -1.000000  1.000000 -1.000000 )  


     PseudoPot. # 1 for Ni read from file:
     /Users/kirill/Documents/dft/volume/NiO_dos_dft_U/../../pot/Ni.pbesol-n-rrkjus_psl.0.1.UPF
     MD5 check sum: 8a65ecc087b22b902f7e15bb4f925df7
     Pseudo is Ultrasoft + core correction, Zval = 10.0
     Generated using "atomic" code by A. Dal Corso  v.5.0.2 svn rev. 9415
     Using radial grid of 1195 points,  6 beta functions with: 
                l(1) =   0
                l(2) =   0
                l(3) =   1
                l(4) =   1
                l(5) =   2
                l(6) =   2
     Q(r) pseudized with 0 coefficients 


     PseudoPot. # 2 for Ni read from file:
     /Users/kirill/Documents/dft/volume/NiO_dos_dft_U/../../pot/Ni.pbesol-n-rrkjus_psl.0.1.UPF
     MD5 check sum: 8a65ecc087b22b902f7e15bb4f925df7
     Pseudo is Ultrasoft + core correction, Zval = 10.0
     Generated using "atomic" code by A. Dal Corso  v.5.0.2 svn rev. 9415
     Using radial grid of 1195 points,  6 beta functions with: 
                l(1) =   0
                l(2) =   0
                l(3) =   1
                l(4) =   1
                l(5) =   2
                l(6) =   2
     Q(r) pseudized with 0 coefficients 


     PseudoPot. # 3 for O  read from file:
     /Users/kirill/Documents/dft/volume/NiO_dos_dft_U/../../pot/O.pbesol-n-rrkjus_psl.1.0.0.UPF
     MD5 check sum: 69b2cf9905362d8720b1d83b4ba3171b
     Pseudo is Ultrasoft + core correction, Zval =  6.0
     Generated using &quot;atomic&quot; code by A. Dal Corso  v.6.3MaX
     Using radial grid of 1095 points,  4 beta functions with: 
                l(1) =   0
                l(2) =   0
                l(3) =   1
                l(4) =   1
     Q(r) pseudized with 0 coefficients 


     atomic species   valence    mass     pseudopotential
     Ni1              10.00    58.69340     Ni( 1.00)
     Ni2              10.00    58.69340     Ni( 1.00)
     O                 6.00    15.99900     O ( 1.00)

     Starting magnetic structure 
     atomic species   magnetization
     Ni1             0.500
     Ni2            -0.500
     O               0.000

     48 Sym. Ops., with inversion, found



   Cartesian axes

     site n.     atom                  positions (alat units)
         1        Ni1    tau(   1) = (   0.0000000   0.0000000   0.0000000  )
         2        Ni2    tau(   2) = (   0.5000000   0.5000000   0.5000000  )
         3        O      tau(   3) = (   0.2500000   0.2500000   0.2500000  )
         4        O      tau(   4) = (   0.7500000   0.7500000   0.7500000  )

     number of k points=     8
                       cart. coord. in units 2pi/alat
        k(    1) = (   0.0000000   0.0000000   0.0000000), wk =   0.0156250
        k(    2) = (  -0.2500000   0.2500000  -0.2500000), wk =   0.1250000
        k(    3) = (   0.5000000  -0.5000000   0.5000000), wk =   0.0625000
        k(    4) = (   0.0000000   0.5000000   0.0000000), wk =   0.0937500
        k(    5) = (   0.7500000  -0.2500000   0.7500000), wk =   0.3750000
        k(    6) = (   0.5000000   0.0000000   0.5000000), wk =   0.1875000
        k(    7) = (   0.0000000  -1.0000000   0.0000000), wk =   0.0468750
        k(    8) = (  -0.5000000  -1.0000000   0.0000000), wk =   0.0937500

     Dense  grid:    26229 G-vectors     FFT dimensions: (  45,  45,  45)

     Smooth grid:     6615 G-vectors     FFT dimensions: (  27,  27,  27)

     Estimated max dynamical RAM per process >      28.30 MB

     Estimated total dynamical RAM >     141.49 MB
     Generating pointlists ...
     new r_m :   0.1786 (alat units)  1.3998 (a.u.) for type    1
     new r_m :   0.1786 (alat units)  1.3998 (a.u.) for type    2
     new r_m :   0.1786 (alat units)  1.3998 (a.u.) for type    3

     Initial potential from superposition of free atoms

     starting charge      31.9995, renormalised to      32.0000
     Starting wfcs are   26 randomized atomic wfcs +    6 random wfcs

     total cpu time spent up to now is        0.4 secs

     Self-consistent Calculation

     iteration #  1     ecut=    55.00 Ry     beta= 0.30
     Davidson diagonalization with overlap
     ethr =  1.00E-02,  avg # of iterations =  7.8

     total cpu time spent up to now is        0.8 secs

     total energy              =    -263.39633828 Ry
     estimated scf accuracy    <       0.79805755 Ry

     total magnetization       =    -0.00 Bohr mag/cell
     absolute magnetization    =     2.80 Bohr mag/cell

     iteration #  2     ecut=    55.00 Ry     beta= 0.30
     Davidson diagonalization with overlap
     ethr =  2.49E-03,  avg # of iterations =  1.6

     total cpu time spent up to now is        1.0 secs

     total energy              =    -263.52361619 Ry
     estimated scf accuracy    <       0.35960256 Ry

     total magnetization       =    -0.00 Bohr mag/cell
     absolute magnetization    =     2.23 Bohr mag/cell

     iteration #  3     ecut=    55.00 Ry     beta= 0.30
     Davidson diagonalization with overlap
     ethr =  1.12E-03,  avg # of iterations =  1.4

     total cpu time spent up to now is        1.2 secs

     total energy              =    -263.59980614 Ry
     estimated scf accuracy    <       0.14861408 Ry

     total magnetization       =    -0.00 Bohr mag/cell
     absolute magnetization    =     1.94 Bohr mag/cell

     iteration #  4     ecut=    55.00 Ry     beta= 0.30
     Davidson diagonalization with overlap
     ethr =  4.64E-04,  avg # of iterations =  1.5

     total cpu time spent up to now is        1.4 secs

     total energy              =    -263.62096734 Ry
     estimated scf accuracy    <       0.04227525 Ry

     total magnetization       =     0.00 Bohr mag/cell
     absolute magnetization    =     1.36 Bohr mag/cell

     iteration #  5     ecut=    55.00 Ry     beta= 0.30
     Davidson diagonalization with overlap
     ethr =  1.32E-04,  avg # of iterations =  2.9

     total cpu time spent up to now is        1.7 secs

     total energy              =    -263.63749573 Ry
     estimated scf accuracy    <       0.00849562 Ry

     total magnetization       =    -0.00 Bohr mag/cell
     absolute magnetization    =     0.56 Bohr mag/cell

     iteration #  6     ecut=    55.00 Ry     beta= 0.30
     Davidson diagonalization with overlap
     ethr =  2.65E-05,  avg # of iterations =  3.6

     total cpu time spent up to now is        1.9 secs

     total energy              =    -263.63425929 Ry
     estimated scf accuracy    <       0.00257993 Ry

     total magnetization       =     0.00 Bohr mag/cell
     absolute magnetization    =     0.52 Bohr mag/cell

     iteration #  7     ecut=    55.00 Ry     beta= 0.30
     Davidson diagonalization with overlap
     ethr =  8.06E-06,  avg # of iterations =  4.2

     total cpu time spent up to now is        2.2 secs

     total energy              =    -263.63215253 Ry
     estimated scf accuracy    <       0.00622334 Ry

     total magnetization       =     0.00 Bohr mag/cell
     absolute magnetization    =     0.25 Bohr mag/cell

     iteration #  8     ecut=    55.00 Ry     beta= 0.30
     Davidson diagonalization with overlap
     ethr =  8.06E-06,  avg # of iterations =  2.0

     total cpu time spent up to now is        2.4 secs

     total energy              =    -263.62931786 Ry
     estimated scf accuracy    <       0.00425172 Ry

     total magnetization       =     0.00 Bohr mag/cell
     absolute magnetization    =     0.63 Bohr mag/cell

     iteration #  9     ecut=    55.00 Ry     beta= 0.30
     Davidson diagonalization with overlap
     ethr =  8.06E-06,  avg # of iterations =  2.1

     total cpu time spent up to now is        2.7 secs

     total energy              =    -263.63957077 Ry
     estimated scf accuracy    <       0.00058010 Ry

     total magnetization       =     0.00 Bohr mag/cell
     absolute magnetization    =     0.32 Bohr mag/cell

     iteration # 10     ecut=    55.00 Ry     beta= 0.30
     Davidson diagonalization with overlap
     ethr =  1.81E-06,  avg # of iterations =  1.6

     total cpu time spent up to now is        2.9 secs

     total energy              =    -263.63989886 Ry
     estimated scf accuracy    <       0.00032523 Ry

     total magnetization       =    -0.00 Bohr mag/cell
     absolute magnetization    =     0.25 Bohr mag/cell

     iteration # 11     ecut=    55.00 Ry     beta= 0.30
     Davidson diagonalization with overlap
     ethr =  1.02E-06,  avg # of iterations =  1.6

     total cpu time spent up to now is        3.1 secs

     total energy              =    -263.63968456 Ry
     estimated scf accuracy    <       0.00006939 Ry

     total magnetization       =    -0.00 Bohr mag/cell
     absolute magnetization    =     0.31 Bohr mag/cell

     iteration # 12     ecut=    55.00 Ry     beta= 0.30
     Davidson diagonalization with overlap
     ethr =  2.17E-07,  avg # of iterations =  2.0

     total cpu time spent up to now is        3.4 secs

     total energy              =    -263.63994966 Ry
     estimated scf accuracy    <       0.00019262 Ry

     total magnetization       =     0.00 Bohr mag/cell
     absolute magnetization    =     0.40 Bohr mag/cell

     iteration # 13     ecut=    55.00 Ry     beta= 0.30
     Davidson diagonalization with overlap
     ethr =  2.17E-07,  avg # of iterations =  1.0

     total cpu time spent up to now is        3.6 secs

     total energy              =    -263.64000607 Ry
     estimated scf accuracy    <       0.00001804 Ry

     total magnetization       =     0.00 Bohr mag/cell
     absolute magnetization    =     0.36 Bohr mag/cell

     iteration # 14     ecut=    55.00 Ry     beta= 0.30
     Davidson diagonalization with overlap
     ethr =  5.64E-08,  avg # of iterations =  1.0

     total cpu time spent up to now is        3.8 secs

     total energy              =    -263.64001038 Ry
     estimated scf accuracy    <       0.00000539 Ry

     total magnetization       =    -0.00 Bohr mag/cell
     absolute magnetization    =     0.35 Bohr mag/cell

     iteration # 15     ecut=    55.00 Ry     beta= 0.30
     Davidson diagonalization with overlap
     ethr =  1.69E-08,  avg # of iterations =  1.6

     total cpu time spent up to now is        4.0 secs

     total energy              =    -263.64001242 Ry
     estimated scf accuracy    <       0.00000035 Ry

     total magnetization       =    -0.00 Bohr mag/cell
     absolute magnetization    =     0.34 Bohr mag/cell

     iteration # 16     ecut=    55.00 Ry     beta= 0.30
     Davidson diagonalization with overlap
     ethr =  1.09E-09,  avg # of iterations =  3.4

     total cpu time spent up to now is        4.3 secs

     total energy              =    -263.64001264 Ry
     estimated scf accuracy    <       0.00000001 Ry

     total magnetization       =     0.00 Bohr mag/cell
     absolute magnetization    =     0.34 Bohr mag/cell

     iteration # 17     ecut=    55.00 Ry     beta= 0.30
     Davidson diagonalization with overlap
     ethr =  4.07E-11,  avg # of iterations =  4.0

     Magnetic moment per site  (integrated on atomic sphere of radius R)
     atom   1 (R=0.179)  charge=  7.5073  magn=  0.1549
     atom   2 (R=0.179)  charge=  7.5074  magn= -0.1549
     atom   3 (R=0.179)  charge=  5.4475  magn= -0.0000
     atom   4 (R=0.179)  charge=  5.4475  magn= -0.0000

     total cpu time spent up to now is        4.6 secs

     End of self-consistent calculation

 ------ SPIN UP ------------


          k = 0.0000 0.0000 0.0000 (   869 PWs)   bands (ev):

     0.1375   9.5007  14.2334  14.2334  14.2334  21.4518  21.4518  23.8515
    23.8515  23.8515  27.9507  27.9507  27.9507  29.7811  29.7811  32.1987
    32.1987  32.1987  38.6631  38.6631  38.6631  38.9440  50.1694  50.1694
    60.2173  63.6103  63.6103  63.6104  64.5939  64.5939  64.5939  73.2580

          k =-0.2500 0.2500-0.2500 (   827 PWs)   bands (ev):

     1.3210   6.9419  15.2584  15.2584  17.9655  20.0501  20.0501  21.1495
    24.6140  24.6140  27.8093  27.8093  28.1789  28.5758  28.5758  29.3173
    31.3425  31.3425  40.8424  41.0702  42.6758  42.6758  50.5578  50.5578
    58.8242  60.7203  60.7203  61.7138  62.0485  62.0485  66.1446  70.0047

          k = 0.5000-0.5000 0.5000 (   832 PWs)   bands (ev):

     3.9939   3.9960  17.6752  17.6752  17.7069  17.7069  19.8088  19.8202
    25.3558  25.3558  25.4900  25.4900  27.8464  28.0151  30.0666  30.0666
    30.2095  30.2095  42.2146  42.2395  49.2826  49.2826  49.2924  49.2924
    57.3233  57.3233  57.3394  57.3394  57.8651  57.8659  75.2239  75.2348

          k = 0.0000 0.5000 0.0000 (   833 PWs)   bands (ev):

     1.7064   6.6449  15.3306  15.3306  16.9341  19.4788  22.0541  22.1519
    22.1519  25.7783  26.3353  28.0915  28.5562  28.5562  29.7195  29.9557
    29.9557  31.2253  40.2652  41.1034  44.0776  44.0776  48.9037  50.3248
    58.9058  58.9058  59.2296  63.9372  63.9372  65.0455  65.7176  65.8195

          k = 0.7500-0.2500 0.7500 (   822 PWs)   bands (ev):

     3.6815   4.9737  14.6230  16.1176  16.7524  19.7894  21.5822  22.4525
    23.4018  24.2164  26.6396  27.1315  27.2136  28.6013  29.2332  29.4863
    30.4993  31.1794  41.7389  43.1292  47.4607  47.7238  48.7515  50.2020
    52.9875  55.3499  57.5712  61.1078  62.6443  65.4310  67.6181  70.8168

          k = 0.5000 0.0000 0.5000 (   837 PWs)   bands (ev):

     2.9218   5.4705  14.8821  17.0556  17.2621  18.2793  21.4118  22.4076
    23.6484  25.2313  26.3983  26.9563  27.1432  27.3862  29.1710  29.7311
    30.3523  31.8421  42.4799  42.6047  45.4074  46.4418  49.5136  51.0400
    53.6496  56.3380  59.6694  61.0827  61.9708  65.1100  66.3208  68.0682

          k = 0.0000-1.0000 0.0000 (   806 PWs)   bands (ev):

     4.1114   5.1484  12.4906  16.7138  16.7138  20.9981  20.9981  22.7192
    22.9293  25.7534  26.0022  26.0022  28.0092  28.2711  29.2052  29.6587
    31.5691  31.5691  40.8800  43.1716  47.1146  47.3932  49.3596  49.3596
    54.5557  55.0175  55.0175  62.9722  64.2922  64.2922  68.1345  68.1345

          k =-0.5000-1.0000 0.0000 (   848 PWs)   bands (ev):

     4.5843   4.5843  14.2444  14.2479  18.7666  18.7666  22.3135  22.3819
    23.5008  23.5180  27.0469  27.0469  29.0643  29.0718  29.4394  29.4394
    29.7660  29.8779  43.1062  43.1129  46.0784  46.0784  52.1737  52.1737
    52.1895  52.1952  58.7195  58.7195  66.9731  67.0116  67.1777  67.1797

 ------ SPIN DOWN ----------


          k = 0.0000 0.0000 0.0000 (   869 PWs)   bands (ev):

     0.1375   9.5007  14.2334  14.2334  14.2334  21.4518  21.4518  23.8515
    23.8515  23.8515  27.9507  27.9507  27.9507  29.7811  29.7811  32.1987
    32.1987  32.1987  38.6631  38.6631  38.6631  38.9440  50.1694  50.1694
    60.2173  63.6104  63.6104  63.6104  64.5939  64.5939  64.5939  73.2580

          k =-0.2500 0.2500-0.2500 (   827 PWs)   bands (ev):

     1.3210   6.9419  15.2584  15.2584  17.9656  20.0501  20.0501  21.1495
    24.6140  24.6140  27.8093  27.8093  28.1789  28.5758  28.5758  29.3173
    31.3426  31.3426  40.8424  41.0702  42.6758  42.6758  50.5578  50.5578
    58.8242  60.7203  60.7203  61.7138  62.0485  62.0485  66.1446  70.0047

          k = 0.5000-0.5000 0.5000 (   832 PWs)   bands (ev):

     3.9939   3.9960  17.6752  17.6752  17.7069  17.7069  19.8089  19.8202
    25.3558  25.3558  25.4900  25.4900  27.8464  28.0151  30.0666  30.0666
    30.2095  30.2095  42.2146  42.2395  49.2826  49.2826  49.2924  49.2924
    57.3233  57.3233  57.3394  57.3394  57.8651  57.8659  75.2299  75.2335

          k = 0.0000 0.5000 0.0000 (   833 PWs)   bands (ev):

     1.7064   6.6449  15.3307  15.3307  16.9341  19.4788  22.0541  22.1520
    22.1520  25.7783  26.3353  28.0915  28.5562  28.5562  29.7195  29.9557
    29.9557  31.2253  40.2651  41.1034  44.0776  44.0776  48.9037  50.3248
    58.9058  58.9058  59.2296  63.9372  63.9372  65.0455  65.7176  65.8195

          k = 0.7500-0.2500 0.7500 (   822 PWs)   bands (ev):

     3.6816   4.9738  14.6230  16.1176  16.7524  19.7894  21.5823  22.4525
    23.4018  24.2164  26.6395  27.1315  27.2136  28.6014  29.2332  29.4863
    30.4993  31.1794  41.7389  43.1293  47.4607  47.7238  48.7516  50.2020
    52.9875  55.3499  57.5712  61.1078  62.6443  65.4310  67.6181  70.8170

          k = 0.5000 0.0000 0.5000 (   837 PWs)   bands (ev):

     2.9218   5.4705  14.8822  17.0556  17.2621  18.2793  21.4119  22.4076
    23.6484  25.2313  26.3983  26.9563  27.1432  27.3862  29.1710  29.7311
    30.3523  31.8422  42.4799  42.6047  45.4074  46.4418  49.5136  51.0400
    53.6496  56.3380  59.6694  61.0827  61.9707  65.1100  66.3208  68.0682

          k = 0.0000-1.0000 0.0000 (   806 PWs)   bands (ev):

     4.1114   5.1485  12.4906  16.7138  16.7138  20.9981  20.9981  22.7192
    22.9293  25.7534  26.0022  26.0022  28.0092  28.2711  29.2052  29.6587
    31.5691  31.5691  40.8800  43.1716  47.1146  47.3932  49.3597  49.3597
    54.5557  55.0175  55.0175  62.9722  64.2922  64.2922  68.1345  68.1345

          k =-0.5000-1.0000 0.0000 (   848 PWs)   bands (ev):

     4.5843   4.5843  14.2444  14.2479  18.7666  18.7666  22.3135  22.3819
    23.5008  23.5180  27.0469  27.0469  29.0643  29.0718  29.4394  29.4394
    29.7660  29.8779  43.1062  43.1129  46.0784  46.0784  52.1737  52.1737
    52.1895  52.1952  58.7194  58.7194  66.9731  67.0116  67.1777  67.1797

     highest occupied, lowest unoccupied level (ev):    32.1987   29.7660

!    total energy              =    -263.64001266 Ry
     estimated scf accuracy    <          2.7E-10 Ry

     The total energy is the sum of the following terms:
     one-electron contribution =      49.61199320 Ry
     hartree contribution      =      32.95703137 Ry
     xc contribution           =    -100.14305606 Ry
     ewald contribution        =    -246.06598117 Ry

     total magnetization       =     0.00 Bohr mag/cell
     absolute magnetization    =     0.34 Bohr mag/cell

     convergence has been achieved in  17 iterations

     Writing all to output data dir /Users/kirill/Documents/dft/volume/NiO_dos_dft_U/out/NiO.save/ :
     XML data file, charge density, pseudopotentials, collected wavefunctions

     init_run     :      0.24s CPU      0.24s WALL (       1 calls)
     electrons    :      4.15s CPU      4.22s WALL (       1 calls)

     Called by init_run:
     wfcinit      :      0.06s CPU      0.06s WALL (       1 calls)
     potinit      :      0.02s CPU      0.02s WALL (       1 calls)
     hinit0       :      0.13s CPU      0.13s WALL (       1 calls)

     Called by electrons:
     c_bands      :      2.75s CPU      2.80s WALL (      17 calls)
     sum_band     :      0.89s CPU      0.90s WALL (      17 calls)
     v_of_rho     :      0.22s CPU      0.23s WALL (      18 calls)
     newd         :      0.27s CPU      0.27s WALL (      18 calls)
     mix_rho      :      0.02s CPU      0.02s WALL (      17 calls)

     Called by c_bands:
     init_us_2    :      0.02s CPU      0.02s WALL (     560 calls)
     cegterg      :      2.69s CPU      2.74s WALL (     272 calls)

     Called by *egterg:
     cdiaghg      :      0.61s CPU      0.62s WALL (     966 calls)
     h_psi        :      1.85s CPU      1.90s WALL (     982 calls)
     s_psi        :      0.04s CPU      0.04s WALL (     982 calls)
     g_psi        :      0.00s CPU      0.00s WALL (     694 calls)

     Called by h_psi:
     h_psi:calbec :      0.06s CPU      0.07s WALL (     982 calls)
     vloc_psi     :      1.75s CPU      1.79s WALL (     982 calls)
                                        0.00s GPU  (     982 calls)
     add_vuspsi   :      0.04s CPU      0.04s WALL (     982 calls)

     General routines
     calbec       :      0.09s CPU      0.09s WALL (    1254 calls)
     fft          :      0.17s CPU      0.17s WALL (     444 calls)
     ffts         :      0.01s CPU      0.01s WALL (      70 calls)
     fftw         :      2.03s CPU      2.07s WALL (   49110 calls)
     interpolate  :      0.01s CPU      0.01s WALL (      36 calls)

     Parallel routines

     PWSCF        :      4.50s CPU      4.59s WALL


   This run was terminated on:  13:35:13  25Feb2026            

=------------------------------------------------------------------------------=
   JOB DONE.
=------------------------------------------------------------------------------=
